 title
GAUSSIAN             40 MOL ORBITALS    344 PRIMITIVES       20 NUCLEI
  C    1    (CENTRE  1)   4.90887568 -0.23338589  0.00014628  CHARGE =  6.0
  C    2    (CENTRE  2)   4.01121435  2.23318087 -0.00115524  CHARGE =  6.0
  C    3    (CENTRE  3)   1.40338946  2.66307724 -0.00068236  CHARGE =  6.0
  C    4    (CENTRE  4)  -0.30784994  0.63847376  0.00069836  CHARGE =  6.0
  C    5    (CENTRE  5)   0.63554363 -1.82566230  0.00220847  CHARGE =  6.0
  C    6    (CENTRE  6)   3.24303062 -2.25988864  0.00203964  CHARGE =  6.0
  C    7    (CENTRE  7)  -4.92450964 -0.41734542 -0.00134448  CHARGE =  6.0
  C    8    (CENTRE  8)  -7.42132073  0.95719909  0.00185002  CHARGE =  6.0
  H    9    (CENTRE  9)  -8.97195680 -0.40878217 -0.01398816  CHARGE =  1.0
  H   10    (CENTRE 10)  -7.57541243  2.12616033  1.69929225  CHARGE =  1.0
  H   11    (CENTRE 11)  -7.56607675  2.15354477 -1.67727893  CHARGE =  1.0
  O   12    (CENTRE 12)   7.43170095 -0.74817131 -0.00044138  CHARGE =  8.0
  H   13    (CENTRE 13)   8.35815343  0.83528545 -0.00333179  CHARGE =  1.0
  O   14    (CENTRE 14)  -4.84001397 -2.73077665 -0.00410668  CHARGE =  8.0
  N   15    (CENTRE 15)  -2.90328928  1.24177724  0.00067311  CHARGE =  7.0
  H   16    (CENTRE 16)  -3.32976687  3.10582894  0.00159318  CHARGE =  1.0
  H   17    (CENTRE 17)   5.29461747  3.83256969 -0.00253342  CHARGE =  1.0
  H   18    (CENTRE 18)   0.73264866  4.60419102 -0.00180568  CHARGE =  1.0
  H   19    (CENTRE 19)  -0.60373317 -3.45997108  0.00384987  CHARGE =  1.0
  H   20    (CENTRE 20)   3.96081487 -4.18357608  0.00331121  CHARGE =  1.0
CENTRE ASSIGNMENTS    1  1  1  1  1  1  1  1  1  1  1  1  1  1  1  1  1  1  1  1
CENTRE ASSIGNMENTS    1  1  1  1  1  1  1  1  2  2  2  2  2  2  2  2  2  2  2  2
CENTRE ASSIGNMENTS    2  2  2  2  2  2  2  2  2  2  2  2  2  2  2  2  3  3  3  3
CENTRE ASSIGNMENTS    3  3  3  3  3  3  3  3  3  3  3  3  3  3  3  3  3  3  3  3
CENTRE ASSIGNMENTS    3  3  3  3  4  4  4  4  4  4  4  4  4  4  4  4  4  4  4  4
CENTRE ASSIGNMENTS    4  4  4  4  4  4  4  4  4  4  4  4  5  5  5  5  5  5  5  5
CENTRE ASSIGNMENTS    5  5  5  5  5  5  5  5  5  5  5  5  5  5  5  5  5  5  5  5
CENTRE ASSIGNMENTS    6  6  6  6  6  6  6  6  6  6  6  6  6  6  6  6  6  6  6  6
CENTRE ASSIGNMENTS    6  6  6  6  6  6  6  6  7  7  7  7  7  7  7  7  7  7  7  7
CENTRE ASSIGNMENTS    7  7  7  7  7  7  7  7  7  7  7  7  7  7  7  7  8  8  8  8
CENTRE ASSIGNMENTS    8  8  8  8  8  8  8  8  8  8  8  8  8  8  8  8  8  8  8  8
CENTRE ASSIGNMENTS    8  8  8  8  9  9  9  9 10 10 10 10 11 11 11 11 12 12 12 12
CENTRE ASSIGNMENTS   12 12 12 12 12 12 12 12 12 12 12 12 12 12 12 12 12 12 12 12
CENTRE ASSIGNMENTS   12 12 12 12 13 13 13 13 14 14 14 14 14 14 14 14 14 14 14 14
CENTRE ASSIGNMENTS   14 14 14 14 14 14 14 14 14 14 14 14 14 14 14 14 15 15 15 15
CENTRE ASSIGNMENTS   15 15 15 15 15 15 15 15 15 15 15 15 15 15 15 15 15 15 15 15
CENTRE ASSIGNMENTS   15 15 15 15 16 16 16 16 17 17 17 17 18 18 18 18 19 19 19 19
CENTRE ASSIGNMENTS   20 20 20 20
TYPE ASSIGNMENTS      1  1  1  1  1  1  1  1  1  2  2  2  3  3  3  4  4  4  1  2
TYPE ASSIGNMENTS      3  4  5  6  7  8  9 10  1  1  1  1  1  1  1  1  1  2  2  2
TYPE ASSIGNMENTS      3  3  3  4  4  4  1  2  3  4  5  6  7  8  9 10  1  1  1  1
TYPE ASSIGNMENTS      1  1  1  1  1  2  2  2  3  3  3  4  4  4  1  2  3  4  5  6
TYPE ASSIGNMENTS      7  8  9 10  1  1  1  1  1  1  1  1  1  2  2  2  3  3  3  4
TYPE ASSIGNMENTS      4  4  1  2  3  4  5  6  7  8  9 10  1  1  1  1  1  1  1  1
TYPE ASSIGNMENTS      1  2  2  2  3  3  3  4  4  4  1  2  3  4  5  6  7  8  9 10
TYPE ASSIGNMENTS      1  1  1  1  1  1  1  1  1  2  2  2  3  3  3  4  4  4  1  2
TYPE ASSIGNMENTS      3  4  5  6  7  8  9 10  1  1  1  1  1  1  1  1  1  2  2  2
TYPE ASSIGNMENTS      3  3  3  4  4  4  1  2  3  4  5  6  7  8  9 10  1  1  1  1
TYPE ASSIGNMENTS      1  1  1  1  1  2  2  2  3  3  3  4  4  4  1  2  3  4  5  6
TYPE ASSIGNMENTS      7  8  9 10  1  1  1  1  1  1  1  1  1  1  1  1  1  1  1  1
TYPE ASSIGNMENTS      1  1  1  1  1  2  2  2  3  3  3  4  4  4  1  2  3  4  5  6
TYPE ASSIGNMENTS      7  8  9 10  1  1  1  1  1  1  1  1  1  1  1  1  1  2  2  2
TYPE ASSIGNMENTS      3  3  3  4  4  4  1  2  3  4  5  6  7  8  9 10  1  1  1  1
TYPE ASSIGNMENTS      1  1  1  1  1  2  2  2  3  3  3  4  4  4  1  2  3  4  5  6
TYPE ASSIGNMENTS      7  8  9 10  1  1  1  1  1  1  1  1  1  1  1  1  1  1  1  1
TYPE ASSIGNMENTS      1  1  1  1
EXPONENTS  0.3047525D+04 0.4573695D+03 0.1039487D+03 0.2921016D+02 0.9286663D+01
EXPONENTS  0.3163927D+01 0.7868272D+01 0.1881289D+01 0.5442493D+00 0.7868272D+01
EXPONENTS  0.1881289D+01 0.5442493D+00 0.7868272D+01 0.1881289D+01 0.5442493D+00
EXPONENTS  0.7868272D+01 0.1881289D+01 0.5442493D+00 0.1687145D+00 0.1687145D+00
EXPONENTS  0.1687145D+00 0.1687145D+00 0.8000000D+00 0.8000000D+00 0.8000000D+00
EXPONENTS  0.8000000D+00 0.8000000D+00 0.8000000D+00 0.3047525D+04 0.4573695D+03
EXPONENTS  0.1039487D+03 0.2921016D+02 0.9286663D+01 0.3163927D+01 0.7868272D+01
EXPONENTS  0.1881289D+01 0.5442493D+00 0.7868272D+01 0.1881289D+01 0.5442493D+00
EXPONENTS  0.7868272D+01 0.1881289D+01 0.5442493D+00 0.7868272D+01 0.1881289D+01
EXPONENTS  0.5442493D+00 0.1687145D+00 0.1687145D+00 0.1687145D+00 0.1687145D+00
EXPONENTS  0.8000000D+00 0.8000000D+00 0.8000000D+00 0.8000000D+00 0.8000000D+00
EXPONENTS  0.8000000D+00 0.3047525D+04 0.4573695D+03 0.1039487D+03 0.2921016D+02
EXPONENTS  0.9286663D+01 0.3163927D+01 0.7868272D+01 0.1881289D+01 0.5442493D+00
EXPONENTS  0.7868272D+01 0.1881289D+01 0.5442493D+00 0.7868272D+01 0.1881289D+01
EXPONENTS  0.5442493D+00 0.7868272D+01 0.1881289D+01 0.5442493D+00 0.1687145D+00
EXPONENTS  0.1687145D+00 0.1687145D+00 0.1687145D+00 0.8000000D+00 0.8000000D+00
EXPONENTS  0.8000000D+00 0.8000000D+00 0.8000000D+00 0.8000000D+00 0.3047525D+04
EXPONENTS  0.4573695D+03 0.1039487D+03 0.2921016D+02 0.9286663D+01 0.3163927D+01
EXPONENTS  0.7868272D+01 0.1881289D+01 0.5442493D+00 0.7868272D+01 0.1881289D+01
EXPONENTS  0.5442493D+00 0.7868272D+01 0.1881289D+01 0.5442493D+00 0.7868272D+01
EXPONENTS  0.1881289D+01 0.5442493D+00 0.1687145D+00 0.1687145D+00 0.1687145D+00
EXPONENTS  0.1687145D+00 0.8000000D+00 0.8000000D+00 0.8000000D+00 0.8000000D+00
EXPONENTS  0.8000000D+00 0.8000000D+00 0.3047525D+04 0.4573695D+03 0.1039487D+03
EXPONENTS  0.2921016D+02 0.9286663D+01 0.3163927D+01 0.7868272D+01 0.1881289D+01
EXPONENTS  0.5442493D+00 0.7868272D+01 0.1881289D+01 0.5442493D+00 0.7868272D+01
EXPONENTS  0.1881289D+01 0.5442493D+00 0.7868272D+01 0.1881289D+01 0.5442493D+00
EXPONENTS  0.1687145D+00 0.1687145D+00 0.1687145D+00 0.1687145D+00 0.8000000D+00
EXPONENTS  0.8000000D+00 0.8000000D+00 0.8000000D+00 0.8000000D+00 0.8000000D+00
EXPONENTS  0.3047525D+04 0.4573695D+03 0.1039487D+03 0.2921016D+02 0.9286663D+01
EXPONENTS  0.3163927D+01 0.7868272D+01 0.1881289D+01 0.5442493D+00 0.7868272D+01
EXPONENTS  0.1881289D+01 0.5442493D+00 0.7868272D+01 0.1881289D+01 0.5442493D+00
EXPONENTS  0.7868272D+01 0.1881289D+01 0.5442493D+00 0.1687145D+00 0.1687145D+00
EXPONENTS  0.1687145D+00 0.1687145D+00 0.8000000D+00 0.8000000D+00 0.8000000D+00
EXPONENTS  0.8000000D+00 0.8000000D+00 0.8000000D+00 0.3047525D+04 0.4573695D+03
EXPONENTS  0.1039487D+03 0.2921016D+02 0.9286663D+01 0.3163927D+01 0.7868272D+01
EXPONENTS  0.1881289D+01 0.5442493D+00 0.7868272D+01 0.1881289D+01 0.5442493D+00
EXPONENTS  0.7868272D+01 0.1881289D+01 0.5442493D+00 0.7868272D+01 0.1881289D+01
EXPONENTS  0.5442493D+00 0.1687145D+00 0.1687145D+00 0.1687145D+00 0.1687145D+00
EXPONENTS  0.8000000D+00 0.8000000D+00 0.8000000D+00 0.8000000D+00 0.8000000D+00
EXPONENTS  0.8000000D+00 0.3047525D+04 0.4573695D+03 0.1039487D+03 0.2921016D+02
EXPONENTS  0.9286663D+01 0.3163927D+01 0.7868272D+01 0.1881289D+01 0.5442493D+00
EXPONENTS  0.7868272D+01 0.1881289D+01 0.5442493D+00 0.7868272D+01 0.1881289D+01
EXPONENTS  0.5442493D+00 0.7868272D+01 0.1881289D+01 0.5442493D+00 0.1687145D+00
EXPONENTS  0.1687145D+00 0.1687145D+00 0.1687145D+00 0.8000000D+00 0.8000000D+00
EXPONENTS  0.8000000D+00 0.8000000D+00 0.8000000D+00 0.8000000D+00 0.1873114D+02
EXPONENTS  0.2825394D+01 0.6401217D+00 0.1612778D+00 0.1873114D+02 0.2825394D+01
EXPONENTS  0.6401217D+00 0.1612778D+00 0.1873114D+02 0.2825394D+01 0.6401217D+00
EXPONENTS  0.1612778D+00 0.5484672D+04 0.8252349D+03 0.1880470D+03 0.5296450D+02
EXPONENTS  0.1689757D+02 0.5799635D+01 0.1553962D+02 0.3599934D+01 0.1013762D+01
EXPONENTS  0.1553962D+02 0.3599934D+01 0.1013762D+01 0.1553962D+02 0.3599934D+01
EXPONENTS  0.1013762D+01 0.1553962D+02 0.3599934D+01 0.1013762D+01 0.2700058D+00
EXPONENTS  0.2700058D+00 0.2700058D+00 0.2700058D+00 0.8000000D+00 0.8000000D+00
EXPONENTS  0.8000000D+00 0.8000000D+00 0.8000000D+00 0.8000000D+00 0.1873114D+02
EXPONENTS  0.2825394D+01 0.6401217D+00 0.1612778D+00 0.5484672D+04 0.8252349D+03
EXPONENTS  0.1880470D+03 0.5296450D+02 0.1689757D+02 0.5799635D+01 0.1553962D+02
EXPONENTS  0.3599934D+01 0.1013762D+01 0.1553962D+02 0.3599934D+01 0.1013762D+01
EXPONENTS  0.1553962D+02 0.3599934D+01 0.1013762D+01 0.1553962D+02 0.3599934D+01
EXPONENTS  0.1013762D+01 0.2700058D+00 0.2700058D+00 0.2700058D+00 0.2700058D+00
EXPONENTS  0.8000000D+00 0.8000000D+00 0.8000000D+00 0.8000000D+00 0.8000000D+00
EXPONENTS  0.8000000D+00 0.4173511D+04 0.6274579D+03 0.1429021D+03 0.4023433D+02
EXPONENTS  0.1282021D+02 0.4390437D+01 0.1162636D+02 0.2716280D+01 0.7722184D+00
EXPONENTS  0.1162636D+02 0.2716280D+01 0.7722184D+00 0.1162636D+02 0.2716280D+01
EXPONENTS  0.7722184D+00 0.1162636D+02 0.2716280D+01 0.7722184D+00 0.2120315D+00
EXPONENTS  0.2120315D+00 0.2120315D+00 0.2120315D+00 0.8000000D+00 0.8000000D+00
EXPONENTS  0.8000000D+00 0.8000000D+00 0.8000000D+00 0.8000000D+00 0.1873114D+02
EXPONENTS  0.2825394D+01 0.6401217D+00 0.1612778D+00 0.1873114D+02 0.2825394D+01
EXPONENTS  0.6401217D+00 0.1612778D+00 0.1873114D+02 0.2825394D+01 0.6401217D+00
EXPONENTS  0.1612778D+00 0.1873114D+02 0.2825394D+01 0.6401217D+00 0.1612778D+00
EXPONENTS  0.1873114D+02 0.2825394D+01 0.6401217D+00 0.1612778D+00
MO    1     MO 0.0        OCC NO =    2.0000000  ORB. ENERGY =  -19.174724
 -0.24316650D-04 -0.44859470D-04 -0.72417095D-04 -0.94265540D-04 -0.80436956D-04
 -0.27772948D-04 -0.63468311D-04 -0.29252487D-04  0.82027026D-04  0.53408102D-03
  0.40949945D-03  0.20436893D-03 -0.18166031D-03 -0.13928560D-03 -0.69513278D-04
  0.49942735D-08  0.38292921D-08  0.19110851D-08 -0.25367900D-04 -0.65677665D-03
  0.22912219D-03  0.39006027D-07 -0.77804590D-04  0.94053375D-05 -0.91868858D-04
 -0.60622282D-04  0.47365216D-07 -0.12716799D-06  0.14750043D-04  0.27210950D-04
  0.43926910D-04  0.57179785D-04  0.48791614D-04  0.16846572D-04 -0.94377259D-04
 -0.43498392D-04  0.12197403D-03 -0.84303090D-04 -0.64638263D-04 -0.32259023D-04
  0.60254824D-04  0.46199578D-04  0.23056827D-04  0.33418706D-07  0.25623344D-07
  0.12787845D-07 -0.57774396D-03  0.26453990D-03  0.20674955D-03 -0.22279066D-06
 -0.94960398D-04 -0.66960858D-04  0.63368052D-04  0.41926292D-04  0.67474279D-07
  0.13911719D-06 -0.39075829D-05 -0.72087274D-05 -0.11637121D-04 -0.15148074D-04
 -0.12925879D-04 -0.44629954D-05  0.26124203D-04  0.12040621D-04 -0.33763159D-04
  0.95335175D-04  0.73096966D-04  0.36480509D-04 -0.33851559D-04 -0.25955228D-04
 -0.12953478D-04 -0.31061581D-07 -0.23816050D-07 -0.11885878D-07  0.39922369D-03
  0.11245928D-03 -0.11430041D-03  0.48042998D-07  0.67098278D-04 -0.30490539D-05
 -0.14329292D-05  0.51466382D-05 -0.32182134D-07  0.10215560D-07  0.92617549D-05
  0.17086129D-04  0.27582311D-04  0.35903973D-04  0.30636925D-04  0.10578194D-04
 -0.32198613D-04 -0.14840311D-04  0.41613782D-04  0.40990104D-04  0.31428612D-04
  0.15685080D-04 -0.23660570D-04 -0.18141424D-04 -0.90538422D-05  0.19403973D-07
  0.14877736D-07  0.74250329D-08 -0.15935544D-03 -0.16147488D-03  0.32389043D-04
 -0.64867208D-08  0.39057405D-04 -0.21538992D-04  0.41976928D-04 -0.34748758D-04
  0.15287123D-07  0.85538091D-07  0.61133359D-05  0.11277911D-04  0.18206045D-04
  0.23698861D-04  0.20222281D-04  0.69822678D-05 -0.14545803D-04 -0.67041475D-05
  0.18799129D-04  0.70476459D-04  0.54036879D-04  0.26968190D-04  0.23716241D-04
  0.18184109D-04  0.90751451D-05 -0.88363421D-08 -0.67751466D-08 -0.33812730D-08
  0.18481530D-03  0.35693416D-04  0.64267754D-04 -0.54520538D-07  0.16770707D-04
  0.30996044D-04  0.43777328D-04 -0.30482235D-04  0.37134899D-07  0.36105202D-07
  0.41606498D-05  0.76755864D-05  0.12390776D-04  0.16129109D-04  0.13762998D-04
  0.47520325D-05 -0.56983296D-04 -0.26263549D-04  0.73645734D-04  0.28313232D-04
  0.21708791D-04  0.10834208D-04  0.99178329D-05  0.76043652D-05  0.37951112D-05
 -0.44242238D-07 -0.33922142D-07 -0.16929526D-07 -0.19818921D-03  0.90710450D-04
 -0.21310852D-03  0.14314936D-06 -0.69564303D-04 -0.93194078D-04  0.24732293D-04
 -0.37210096D-04  0.93276459D-07  0.19003563D-06  0.12256112D-05  0.22610133D-05
  0.36499765D-05  0.47511848D-05  0.40541946D-05  0.13998160D-05 -0.99615663D-06
 -0.45912768D-06  0.12874419D-05  0.23244166D-04  0.17822152D-04  0.88945031D-05
 -0.20112054D-06 -0.15420648D-06 -0.76959839D-07  0.33541263D-08  0.25717313D-08
  0.12834742D-08  0.13515833D-04 -0.91340079D-05  0.57530777D-05  0.24730229D-07
  0.12856758D-04  0.45658766D-05  0.75479432D-05 -0.57654266D-05 -0.26786384D-07
  0.12891628D-07  0.15413416D-05  0.28434742D-05  0.45902490D-05  0.59751403D-05
  0.50985981D-05  0.17604234D-05 -0.65098764D-05 -0.30003961D-05  0.84134238D-05
 -0.57072586D-06 -0.43759639D-06 -0.21839127D-06  0.52944516D-05  0.40594497D-05
  0.20259499D-05  0.43026259D-07  0.32989807D-07  0.16464226D-07 -0.19390171D-04
 -0.90225949D-05  0.41432116D-06 -0.26268664D-07 -0.34658547D-05  0.44254800D-05
  0.37759277D-05  0.68163980D-05  0.54618975D-07  0.55625732D-07  0.22329957D-06
  0.37875834D-06  0.43120298D-06 -0.19600066D-05  0.14744611D-05  0.25009652D-05
  0.28472605D-05  0.70158175D-06  0.14855363D-05  0.25197507D-05  0.28686472D-05
  0.66023091D-06  0.82563709D+00  0.15196130D+01  0.24590207D+01  0.32324515D+01
  0.27724549D+01  0.94794940D+00 -0.15827622D-01 -0.70622541D-02  0.20854931D-01
 -0.96354035D-03 -0.74235589D-03 -0.32593422D-03  0.30974429D-02  0.23864128D-02
  0.10477637D-02 -0.38249800D-05 -0.29469409D-05 -0.12938658D-05  0.37949917D-02
 -0.35984621D-03 -0.67228646D-05  0.16955242D-06 -0.91015540D-02 -0.92611017D-02
 -0.91707694D-02 -0.64632904D-05 -0.41259109D-07  0.21845667D-06  0.87585987D-04
  0.14856241D-03  0.16913305D-03 -0.18539258D-03 -0.58202450D-07 -0.10712358D-06
 -0.17334617D-06 -0.22786839D-06 -0.19544140D-06 -0.66824733D-07 -0.15981844D-05
 -0.71310678D-06  0.21058139D-05  0.27068197D-05  0.20854587D-05  0.91562868D-06
  0.32427052D-06  0.24983296D-06  0.10969012D-06  0.20445809D-07  0.15752393D-07
  0.69161491D-08 -0.15728085D-05  0.13068065D-05 -0.10894208D-05 -0.11438538D-07
  0.32858936D-05  0.99433160D-06  0.41471994D-05  0.26941083D-05  0.16914375D-08
 -0.15740070D-07  0.92256415D-05  0.16989790D-04  0.27450871D-04  0.35927289D-04
  0.30774943D-04  0.10586937D-04 -0.28080011D-04 -0.13881377D-04  0.36618183D-04
 -0.39324178D-05 -0.30614501D-05 -0.14536848D-05 -0.18321932D-04 -0.14263917D-04
 -0.67730123D-05  0.15493163D-07  0.12061675D-07  0.57273099D-08 -0.13403742D-03
 -0.41298681D-04  0.22305645D-04 -0.86238945D-08  0.60315358D-05  0.35890316D-04
  0.34659129D-04  0.16695282D-04 -0.21537012D-07  0.52200845D-08 -0.20095725D-05
 -0.34086153D-05 -0.38805881D-05  0.21712781D-05 -0.22673140D-04 -0.38457937D-04
 -0.43783002D-04 -0.83141209D-04  0.28814635D-05  0.48875075D-05  0.55642546D-05
  0.23736236D-04  0.29268773D-05  0.49645379D-05  0.56519509D-05  0.11847653D-04
 -0.35075593D-05 -0.59494845D-05 -0.67732778D-05 -0.11653754D-03
MO    2     MO 0.0        OCC NO =    2.0000000  ORB. ENERGY =  -19.117537
 -0.23398975D-05 -0.43166540D-05 -0.69684179D-05 -0.90708097D-05 -0.77401383D-05
 -0.26724838D-05  0.76130206D-05  0.35088342D-05 -0.98391375D-05  0.90673338D-05
  0.69522565D-05  0.34696632D-05 -0.69392119D-05 -0.53205476D-05 -0.26553261D-05
 -0.35566416D-07 -0.27270072D-07 -0.13609677D-07 -0.20579136D-05 -0.22976537D-04
  0.77241767D-04  0.11800528D-09 -0.85986342D-05 -0.75430063D-06 -0.84164483D-05
 -0.11938047D-04 -0.10810884D-07 -0.38150063D-07  0.26558938D-05  0.48996055D-05
  0.79094825D-05  0.10295796D-04  0.87854214D-05  0.30333949D-05 -0.10665817D-04
 -0.49158652D-05  0.13784599D-04 -0.15677833D-04 -0.12020768D-04 -0.59992057D-05
 -0.20880802D-06 -0.16010075D-06 -0.79901494D-07  0.26264737D-07  0.20138134D-07
  0.10050340D-07 -0.21865829D-04 -0.26405122D-04  0.55092023D-04 -0.54844262D-07
  0.56969142D-05 -0.90660459D-05  0.13180850D-04  0.21643632D-05  0.18396543D-07
  0.43953241D-07 -0.13476003D-05 -0.24860595D-05 -0.40132709D-05 -0.52240862D-05
 -0.44577222D-05 -0.15391444D-05  0.85460376D-05  0.39388609D-05 -0.11044977D-04
  0.92061449D-05  0.70586880D-05  0.35227800D-05 -0.51056791D-05 -0.39147109D-05
 -0.19537151D-05 -0.35178724D-07 -0.26972815D-07 -0.13461325D-07  0.68606626D-04
 -0.95755061D-04 -0.20824735D-05  0.71244335D-07  0.16705110D-04 -0.46903553D-05
 -0.20599790D-05  0.26312612D-04 -0.40998131D-07 -0.72308444D-07 -0.16748566D-04
 -0.30897835D-04 -0.49878685D-04 -0.64927228D-04 -0.55402521D-04 -0.19129159D-04
  0.44518825D-04  0.20518686D-04 -0.57536537D-04  0.12985054D-03  0.99561157D-04
  0.49687995D-04 -0.81765983D-05 -0.62692970D-05 -0.31288186D-05  0.89347036D-07
  0.68505640D-07  0.34189116D-07  0.47820978D-04  0.13404837D-03 -0.24302942D-03
 -0.13234127D-07 -0.13516966D-03 -0.84761146D-05 -0.61838577D-04  0.46724248D-04
  0.11376370D-06  0.11867451D-06 -0.30139915D-05 -0.55602258D-05 -0.89759284D-05
 -0.11683992D-04 -0.99699714D-05 -0.34423915D-05  0.13910101D-04  0.64111529D-05
 -0.17977542D-04 -0.21841159D-04 -0.16746416D-04 -0.83576350D-05  0.73971090D-04
  0.56716340D-04  0.28305429D-04 -0.40989611D-06 -0.31428234D-06 -0.15684891D-06
 -0.36769542D-04  0.72536697D-04 -0.24264537D-03  0.33051305D-06  0.53856598D-04
 -0.58661658D-04 -0.36642318D-05  0.52280026D-04 -0.72514705D-07  0.17137630D-06
  0.53608869D-05  0.98897896D-05  0.15965187D-04  0.20781930D-04  0.17733258D-04
  0.61228679D-05 -0.21323462D-04 -0.98279640D-05  0.27558637D-04 -0.62382107D-05
 -0.47830643D-05 -0.23870843D-05 -0.73797931D-05 -0.56583573D-05 -0.28239168D-05
  0.10581263D-06  0.81130410D-07  0.40489760D-07 -0.89144143D-04  0.10564796D-03
  0.53238778D-04 -0.14872904D-06 -0.23476533D-04  0.13607000D-04  0.29421306D-04
 -0.40895018D-05  0.12915460D-06 -0.48042086D-07 -0.92907978D-05 -0.17139708D-04
 -0.27668803D-04 -0.36016560D-04 -0.30732996D-04 -0.10611365D-04 -0.16684937D-03
 -0.76900723D-04  0.21563766D-03  0.40612664D-04  0.31139214D-04  0.15540650D-04
  0.91867806D-05  0.70438407D-05  0.35153702D-05 -0.54669814D-07 -0.41917346D-07
 -0.20919693D-07 -0.42639494D-03 -0.40483262D-04  0.73342156D-03  0.94908360D-06
 -0.58285542D-04 -0.95669982D-03 -0.93000595D-04  0.10905172D-03 -0.53849337D-07
 -0.18369757D-05  0.35599671D-07  0.65674442D-07  0.10601891D-06  0.13800512D-06
  0.11776002D-06  0.40659706D-07 -0.26384480D-04 -0.12160583D-04  0.34099544D-04
 -0.32212866D-04 -0.24698782D-04 -0.12326423D-04  0.13223067D-04  0.10138609D-04
  0.50598767D-05  0.43329607D-06  0.33222394D-06  0.16580303D-06 -0.16686097D-03
 -0.12804548D-03 -0.64488662D-04 -0.22724824D-06 -0.73993033D-04  0.78095908D-05
 -0.33784539D-04  0.12788661D-04  0.55519835D-06  0.10450285D-05  0.31770467D-05
  0.53888725D-05  0.61350409D-05 -0.60082699D-04  0.53888158D-05  0.91404515D-05
  0.10406081D-04  0.10134733D-04  0.55266077D-05  0.93741728D-05  0.10672164D-04
  0.10205611D-04 -0.12015493D-05 -0.22114921D-05 -0.35786117D-05 -0.47041852D-05
 -0.40347523D-05 -0.13795503D-05  0.85384507D-05  0.38098401D-05 -0.11250509D-04
 -0.19683454D-05 -0.15165040D-05 -0.66582695D-06 -0.40634599D-05 -0.31306768D-05
 -0.13745357D-05  0.17845273D-07  0.13748821D-07  0.60364729D-08  0.34586826D-04
 -0.12190136D-04 -0.50249923D-05 -0.59604560D-08 -0.17805672D-05 -0.11083142D-04
 -0.12030447D-05  0.52852131D-05  0.17774425D-07 -0.67116729D-08 -0.11074955D-05
 -0.18785221D-05 -0.21386310D-05  0.26770768D-05  0.82563052D+00  0.15196009D+01
  0.24590011D+01  0.32324258D+01  0.27724328D+01  0.94794186D+00 -0.15686204D-01
 -0.69991535D-02  0.20668594D-01 -0.79593015D-04 -0.61322127D-04 -0.26923717D-04
  0.35670599D-02  0.27482273D-02  0.12066198D-02  0.44406277D-05  0.34212642D-05
  0.15021193D-05  0.41680023D-02  0.23953893D-04  0.52958862D-03  0.66288778D-06
 -0.92748050D-02 -0.87189158D-02 -0.93444836D-02 -0.45059910D-04  0.24474567D-06
  0.14398914D-05  0.27546113D-05  0.50728469D-05  0.81963386D-05  0.10727245D-04
  0.91888469D-05  0.31610698D-05 -0.15216415D-04 -0.75222477D-05  0.19843207D-04
 -0.23687337D-03 -0.18440970D-03 -0.87564249D-04  0.33197580D-04  0.25844846D-04
  0.12272047D-04 -0.27575659D-06 -0.21468091D-06 -0.10193809D-06 -0.10664462D-03
  0.34302270D-03 -0.53570128D-04  0.38875258D-07  0.15004339D-03 -0.98579581D-04
  0.53565655D-06  0.76201563D-05 -0.72071947D-08 -0.57423975D-07  0.31047182D-04
  0.52661897D-04  0.59953709D-04  0.22819330D-04 -0.22876008D-05 -0.38802040D-05
 -0.44174751D-05 -0.11138767D-04 -0.61775486D-05 -0.10478292D-04 -0.11929165D-04
 -0.19903751D-04  0.97691406D-05  0.16570311D-04  0.18864714D-04 -0.18247169D-03
  0.51831487D-05  0.87916012D-05  0.10008927D-04  0.16174117D-04
MO    3     MO 0.0        OCC NO =    2.0000000  ORB. ENERGY =  -14.376021
 -0.12540423D-05 -0.23134631D-05 -0.37346468D-05 -0.48614004D-05 -0.41482418D-05
 -0.14322882D-05  0.32373137D-05  0.14920749D-05 -0.41839339D-05  0.14123001D-05
  0.10828621D-05  0.54042409D-06 -0.19800967D-05 -0.15182126D-05 -0.75769448D-06
  0.27213735D-08  0.20865766D-08  0.10413479D-08  0.52144258D-04 -0.23626647D-04
  0.18844510D-06  0.72584497D-08 -0.44614699D-05 -0.65837234D-05 -0.34044860D-05
 -0.61126648D-07  0.20982204D-08  0.17554519D-07  0.73433686D-06  0.13547081D-05
  0.21869189D-05  0.28467187D-05  0.24291102D-05  0.83871338D-06 -0.23430844D-05
 -0.10799254D-05  0.30282237D-05  0.34829605D-05  0.26705132D-05  0.13327733D-05
  0.79109197D-05  0.60655915D-05  0.30271553D-05  0.74645178D-08  0.57233188D-08
  0.28563372D-08 -0.75474973D-04  0.25186186D-04  0.16941807D-04 -0.27548238D-07
  0.14741649D-04  0.23366432D-05 -0.28092143D-05 -0.26995601D-04  0.22157019D-07
  0.82231264D-08 -0.21934758D-05 -0.40465345D-05 -0.65323614D-05 -0.85031936D-05
 -0.72557905D-05 -0.25052501D-05 -0.16451630D-04 -0.75825415D-05  0.21262238D-04
  0.10939747D-04  0.83879044D-05  0.41861522D-05  0.22168467D-04  0.16997375D-04
  0.84828812D-05 -0.48189029D-07 -0.36948291D-07 -0.18439787D-07  0.68670057D-04
  0.45775112D-04 -0.62123726D-04  0.43042257D-07 -0.10049526D-03 -0.10223177D-04
 -0.16370372D-04 -0.43355614D-04  0.29259683D-07  0.29048302D-08  0.17128055D-04
  0.31597917D-04  0.51008836D-04  0.66398348D-04  0.56657831D-04  0.19562587D-04
 -0.74120949D-04 -0.34162278D-04  0.95794593D-04 -0.38292376D-03 -0.29360165D-03
 -0.14652780D-03  0.83590145D-04  0.64091621D-04  0.31986211D-04  0.21208322D-07
  0.16261196D-07  0.81154765D-08 -0.17274218D-03 -0.86083490D-04  0.51117292D-04
 -0.20688467D-07  0.23138653D-03  0.65243306D-04 -0.39487382D-05 -0.93736036D-04
 -0.35090535D-07 -0.54331596D-07 -0.28977969D-05 -0.53458695D-05 -0.86298910D-05
 -0.11233554D-04 -0.95856119D-05 -0.33096814D-05 -0.72141670D-05 -0.33250030D-05
  0.93236555D-05 -0.17091720D-04 -0.13104846D-04 -0.65402368D-05 -0.71974753D-05
 -0.55185675D-05 -0.27541520D-05  0.53770214D-07  0.41227589D-07  0.20575456D-07
  0.13849341D-03  0.56408432D-04  0.63352884D-04 -0.71864387D-07 -0.51972105D-04
 -0.31607107D-04 -0.12234758D-04  0.69272495D-04 -0.30192546D-07  0.21715947D-07
  0.16578953D-05  0.30584931D-05  0.49373562D-05  0.64269708D-05  0.54841458D-05
  0.18935438D-05 -0.69059023D-05 -0.31829241D-05  0.89252513D-05  0.10230445D-04
  0.78440564D-05  0.39147339D-05 -0.73275357D-05 -0.56182896D-05 -0.28039203D-05
 -0.42214717D-08 -0.32367567D-08 -0.16153684D-08 -0.93121644D-04  0.19976701D-04
 -0.32889934D-04  0.27432799D-07  0.11131615D-04 -0.17192153D-05  0.10239798D-05
  0.16782580D-04 -0.29770062D-07  0.68229631D-08  0.18229768D-04  0.33630362D-04
  0.54289832D-04  0.70669230D-04  0.60302182D-04  0.20820894D-04 -0.72441736D-04
 -0.33388330D-04  0.93624362D-04  0.34572589D-03  0.26508068D-03  0.13229384D-03
  0.25226621D-03  0.19342173D-03  0.96530998D-04  0.29075638D-06  0.22293355D-06
  0.11125947D-06 -0.11868133D-03 -0.22271809D-04 -0.15415772D-04 -0.16226803D-07
  0.13945867D-03  0.12976104D-03 -0.15566314D-04  0.15803469D-03  0.18965520D-06
  0.36189786D-06 -0.13848430D-05 -0.25547650D-05 -0.41241828D-05 -0.53684606D-05
 -0.45809172D-05 -0.15816806D-05 -0.21608388D-04 -0.99592862D-05  0.27926878D-04
 -0.32142846D-04 -0.24645096D-04 -0.12299630D-04 -0.12384892D-04 -0.94959494D-05
 -0.47391443D-05 -0.67149567D-07 -0.51486029D-07 -0.25695137D-07  0.15513196D-04
 -0.88615356D-05 -0.48446771D-05  0.29081903D-07 -0.10127146D-03 -0.81732146D-05
 -0.19009065D-04 -0.19699978D-04  0.10636879D-06  0.16223624D-06 -0.37456018D-06
 -0.63532495D-06 -0.72329500D-06 -0.93002083D-05  0.15890773D-05  0.26953759D-05
  0.30685902D-05 -0.33942473D-05  0.15571077D-05  0.26411494D-05  0.30068553D-05
 -0.32126902D-05 -0.53801371D-06 -0.99023243D-06 -0.16023830D-05 -0.21063773D-05
 -0.18066276D-05 -0.61771665D-06  0.20837741D-05  0.92977593D-06 -0.27456408D-05
 -0.10892190D-05 -0.83918450D-06 -0.36844720D-06 -0.29392795D-05 -0.22645564D-05
 -0.99426223D-06  0.23490340D-08  0.18098040D-08  0.79460145D-09  0.85925934D-05
 -0.26155692D-06  0.22255726D-05 -0.13652311D-08 -0.26793661D-05 -0.65536624D-06
 -0.14319600D-05 -0.12837107D-05  0.11993848D-08  0.12210242D-08 -0.45785394D-06
 -0.77660694D-06 -0.88413955D-06  0.10561308D-06  0.13415268D-06  0.24691254D-06
  0.39955109D-06  0.52522110D-06  0.45047908D-06  0.15402645D-06 -0.10094298D-04
 -0.45040562D-05  0.13300538D-04 -0.22757591D-05 -0.17533497D-05 -0.76981495D-06
 -0.60619146D-04 -0.46703784D-04 -0.20505477D-04 -0.16531036D-07 -0.12736272D-07
 -0.55919093D-08  0.11681642D-04 -0.14317961D-04 -0.73845791D-05 -0.22499364D-07
 -0.14718531D-04 -0.67506172D-04  0.13742709D-04 -0.86367753D-04 -0.87783040D-07
 -0.18945431D-06  0.67398299D+00  0.12411960D+01  0.20054346D+01  0.26246827D+01
  0.22482760D+01  0.77343299D+00 -0.18011963D-01 -0.89042289D-02  0.23488785D-01
  0.63184839D-04  0.49190406D-04  0.23357345D-04  0.27672494D-03  0.21543478D-03
  0.10229606D-03 -0.58444864D-08 -0.45500260D-08 -0.21605133D-08  0.88985844D-03
 -0.56618201D-04 -0.59142313D-05 -0.87614754D-09 -0.95128205D-02 -0.93559264D-02
 -0.93759095D-02 -0.49572202D-04 -0.97013705D-07 -0.51651646D-07  0.67795422D-04
  0.11499387D-03  0.13091645D-03 -0.10022893D-03  0.12460765D-06  0.21135816D-06
  0.24062380D-06 -0.67948596D-05  0.57271996D-05  0.97144145D-05  0.11059518D-04
  0.37537785D-04  0.58549947D-05  0.99311791D-05  0.11306296D-04  0.33665348D-04
 -0.32386901D-06 -0.54934314D-06 -0.62540775D-06 -0.85307767D-05
MO    4     MO 0.0        OCC NO =    2.0000000  ORB. ENERGY =  -10.292690
 -0.71220672D-05 -0.13138823D-04 -0.21210135D-04 -0.27609293D-04 -0.23559060D-04
 -0.81343773D-05  0.12961017D-04  0.59737211D-05 -0.16750937D-04  0.26775179D-04
  0.20529509D-04  0.10245664D-04  0.34620137D-04  0.26544525D-04  0.13247579D-04
 -0.43267496D-07 -0.33174772D-07 -0.16556536D-07  0.59052367D-04 -0.52347721D-04
  0.13818177D-03 -0.56091991D-07 -0.32751929D-04  0.36987025D-05 -0.15895888D-04
 -0.31454455D-04  0.29624231D-07 -0.42415141D-07  0.13238413D-04  0.24422286D-04
  0.39425143D-04  0.51319821D-04  0.43791296D-04  0.15120082D-04 -0.49098683D-04
 -0.22629538D-04  0.63455587D-04  0.76083098D-04  0.58335694D-04  0.29113600D-04
 -0.26602809D-04 -0.20397346D-04 -0.10179705D-04 -0.81388305D-08 -0.62403390D-08
 -0.31143665D-08 -0.38504834D-03  0.93171120D-04  0.14657416D-03 -0.12735111D-06
 -0.51380416D-04  0.12875035D-04  0.37360171D-04  0.12836442D-04  0.53085217D-07
  0.45863025D-07 -0.16020812D-04 -0.29555270D-04 -0.47711369D-04 -0.62106026D-04
 -0.52995185D-04 -0.18297964D-04  0.73347615D-04  0.33805849D-04 -0.94795129D-04
 -0.14928715D-03 -0.11446392D-03 -0.57125519D-04  0.72898347D-05  0.55893829D-05
  0.27894938D-05  0.53111507D-07  0.40722535D-07  0.20323399D-07  0.71743167D-03
  0.13998837D-04 -0.32941190D-03  0.20305307D-06  0.69051101D-04  0.36196357D-05
 -0.48975741D-04  0.90418642D-05 -0.98136961D-07 -0.96147851D-07  0.21345314D-05
  0.39377935D-05  0.63568198D-05  0.82746905D-05  0.70608084D-05  0.24379275D-05
  0.30639192D-04  0.14121576D-04 -0.39598372D-04 -0.30669612D-04 -0.23515513D-04
 -0.11735889D-04  0.18238029D-03  0.13983764D-03  0.69788783D-04 -0.97436482D-07
 -0.74708114D-07 -0.37284585D-07  0.17272532D-03 -0.48760521D-03 -0.49933868D-03
  0.21246671D-06  0.29451601D-03  0.68490509D-04 -0.82476078D-06 -0.20704274D-03
  0.29842372D-06 -0.14438193D-06  0.68748232D-05  0.12682706D-04  0.20473821D-04
  0.26650831D-04  0.22741202D-04  0.78519907D-05 -0.65555591D-04 -0.30214512D-04
  0.84724645D-04  0.70068484D-04  0.53724070D-04  0.26812076D-04 -0.25634133D-04
 -0.19654627D-04 -0.98090364D-05 -0.12809305D-06 -0.98213627D-07 -0.49015483D-07
 -0.32111159D-03  0.22464151D-03 -0.16754136D-03  0.19403381D-06 -0.85580834D-04
 -0.40986861D-04  0.28030818D-04  0.15869089D-03 -0.11420368D-06  0.22252741D-06
 -0.11245150D-04 -0.20745107D-04 -0.33489034D-04 -0.43592772D-04 -0.37197792D-04
 -0.12843504D-04  0.35892786D-04  0.16542952D-04 -0.46388165D-04 -0.15730669D-04
 -0.12061279D-04 -0.60194237D-05 -0.61387447D-04 -0.47068001D-04 -0.23490231D-04
  0.84650587D-07  0.64904701D-07  0.32391995D-07 -0.23289142D-04  0.90622635D-04
  0.94944635D-04 -0.13788235D-06  0.28587002D-04 -0.90521973D-05 -0.47043864D-04
 -0.10270132D-04  0.37330703D-07 -0.83569197D-07  0.53255644D+00  0.98246264D+00
  0.15859993D+01  0.20644999D+01  0.17616415D+01  0.60825247D+00 -0.19371312D-01
 -0.89282199D-02  0.25035661D-01  0.79325352D-03  0.60821649D-03  0.30354265D-03