header                                                                  
SP        RB3LYP                                                      6-311+G(d,p)        
Number of atoms                            I               12
Info1-9                                    I   N=           9
          20          19           0           0           0         110
           1          18        -502
Full Title                                 C   N=           1
header      
Route                                      C   N=           3
#P rb3lyp/6-311+g(d,p) pop=esp      
Charge                                     I                0
Multiplicity                               I                1
Number of electrons                        I               36
Number of alpha electrons                  I               18
Number of beta electrons                   I               18
Number of basis functions                  I              136
Number of independent functions            I              136
Number of point charges in /Mol/           I                0
Number of translation vectors              I                0
Atomic numbers                             I   N=          12
           8           8           6           1           1           1
           6           1           1           1           1           1
Nuclear charges                            R   N=          12
  8.00000000E+00  8.00000000E+00  6.00000000E+00  1.00000000E+00  1.00000000E+00
  1.00000000E+00  6.00000000E+00  1.00000000E+00  1.00000000E+00  1.00000000E+00
  1.00000000E+00  1.00000000E+00
Current cartesian coordinates              R   N=          36
  2.31031303E+00  1.33634818E+00 -6.69416585E-01 -2.31027146E+00 -1.33628960E+00
 -6.69503513E-01 -3.44077744E+00  6.99778815E-01  7.19307245E-01 -4.96642326E+00
  1.56328728E+00 -3.81006583E-01 -4.22014207E+00 -1.36179334E-01  2.43222493E+00
 -2.03796192E+00  2.13278838E+00  1.21276954E+00  3.44074342E+00 -6.99841176E-01
  7.19278899E-01  4.96635146E+00 -1.56335153E+00 -3.81089731E-01  4.22014774E+00
  1.35994141E-01  2.43223816E+00  2.03786932E+00 -2.13282050E+00  1.21266561E+00
  1.51125745E+00  8.50524158E-01 -2.22395066E+00 -1.51122911E+00 -8.50340855E-01
 -2.22400735E+00
Number of symbols in /Mol/                 I                0
Force Field                                I                0
Atom Types                                 C   N=          12
                                                            
                                                            
                        
Int Atom Types                             I   N=          12
           0           0           0           0           0           0
           0           0           0           0           0           0
MM charges                                 R   N=          12
  0.00000000E+00  0.00000000E+00  0.00000000E+00  0.00000000E+00  0.00000000E+00
  0.00000000E+00  0.00000000E+00  0.00000000E+00  0.00000000E+00  0.00000000E+00
  0.00000000E+00  0.00000000E+00
Integer atomic weights                     I   N=          12
          16          16          12           1           1           1
          12           1           1           1           1           1
Real atomic weights                        R   N=          12
  1.59949146E+01  1.59949146E+01  1.20000000E+01  1.00782504E+00  1.00782504E+00
  1.00782504E+00  1.20000000E+01  1.00782504E+00  1.00782504E+00  1.00782504E+00
  1.00782504E+00  1.00782504E+00
Atom fragment info                         I   N=          12
           0           0           0           0           0           0
           0           0           0           0           0           0
Atom residue num                           I   N=          12
           0           0           0           0           0           0
           0           0           0           0           0           0
Nuclear spins                              I   N=          12
           0           0           0           1           1           1
           0           1           1           1           1           1
Nuclear ZEff                               R   N=          12
 -5.60000000E+00 -5.60000000E+00 -3.60000000E+00 -1.00000000E+00 -1.00000000E+00
 -1.00000000E+00 -3.60000000E+00 -1.00000000E+00 -1.00000000E+00 -1.00000000E+00
 -1.00000000E+00 -1.00000000E+00
Nuclear ZNuc                               R   N=          12
  8.00000000E+00  8.00000000E+00  6.00000000E+00  1.00000000E+00  1.00000000E+00
  1.00000000E+00  6.00000000E+00  1.00000000E+00  1.00000000E+00  1.00000000E+00
  1.00000000E+00  1.00000000E+00
Nuclear QMom                               R   N=          12
  0.00000000E+00  0.00000000E+00  0.00000000E+00  0.00000000E+00  0.00000000E+00
  0.00000000E+00  0.00000000E+00  0.00000000E+00  0.00000000E+00  0.00000000E+00
  0.00000000E+00  0.00000000E+00
Nuclear GFac                               R   N=          12
  0.00000000E+00  0.00000000E+00  0.00000000E+00  2.79284600E+00  2.79284600E+00
  2.79284600E+00  0.00000000E+00  2.79284600E+00  2.79284600E+00  2.79284600E+00
  2.79284600E+00  2.79284600E+00
MicOpt                                     I   N=          12
          -1          -1          -1          -1          -1          -1
          -1          -1          -1          -1          -1          -1
Number of residues                         I                0
Number of secondary structures             I                0
Number of contracted shells                I               56
Number of primitive shells                 I              100
Pure/Cartesian d shells                    I                0
Pure/Cartesian f shells                    I                0
Highest angular momentum                   I                2
Largest degree of contraction              I                6
Shell types                                I   N=          56
           0          -1          -1          -1          -1          -2
           0          -1          -1          -1          -1          -2
           0          -1          -1          -1          -1          -2
           0           0           0           1           0           0
           0           1           0           0           0           1
           0          -1          -1          -1          -1          -2
           0           0           0           1           0           0
           0           1           0           0           0           1
           0           0           0           1           0           0
           0           1
Number of primitives per shell             I   N=          56
           6           3           1           1           1           1
           6           3           1           1           1           1
           6           3           1           1           1           1
           3           1           1           1           3           1
           1           1           3           1           1           1
           6           3           1           1           1           1
           3           1           1           1           3           1
           1           1           3           1           1           1
           3           1           1           1           3           1
           1           1
Shell to atom map                          I   N=          56
           1           1           1           1           1           1
           2           2           2           2           2           2
           3           3           3           3           3           3
           4           4           4           4           5           5
           5           5           6           6           6           6
           7           7           7           7           7           7
           8           8           8           8           9           9
           9           9          10          10          10          10
          11          11          11          11          12          12
          12          12
Primitive exponents                        R   N=         100
  8.58850000E+03  1.29723000E+03  2.99296000E+02  8.73771000E+01  2.56789000E+01
  3.74004000E+00  4.21175000E+01  9.62837000E+00  2.85332000E+00  9.05661000E-01
  2.55611000E-01  8.45000000E-02  1.29200000E+00  8.58850000E+03  1.29723000E+03
  2.99296000E+02  8.73771000E+01  2.56789000E+01  3.74004000E+00  4.21175000E+01
  9.62837000E+00  2.85332000E+00  9.05661000E-01  2.55611000E-01  8.45000000E-02
  1.29200000E+00  4.56324000E+03  6.82024000E+02  1.54973000E+02  4.44553000E+01
  1.30290000E+01  1.82773000E+00  2.09642000E+01  4.80331000E+00  1.45933000E+00
  4.83456000E-01  1.45585000E-01  4.38000000E-02  6.26000000E-01  3.38650000E+01
  5.09479000E+00  1.15879000E+00  3.25840000E-01  1.02741000E-01  7.50000000E-01
  3.38650000E+01  5.09479000E+00  1.15879000E+00  3.25840000E-01  1.02741000E-01
  7.50000000E-01  3.38650000E+01  5.09479000E+00  1.15879000E+00  3.25840000E-01
  1.02741000E-01  7.50000000E-01  4.56324000E+03  6.82024000E+02  1.54973000E+02
  4.44553000E+01  1.30290000E+01  1.82773000E+00  2.09642000E+01  4.80331000E+00
  1.45933000E+00  4.83456000E-01  1.45585000E-01  4.38000000E-02  6.26000000E-01
  3.38650000E+01  5.09479000E+00  1.15879000E+00  3.25840000E-01  1.02741000E-01
  7.50000000E-01  3.38650000E+01  5.09479000E+00  1.15879000E+00  3.25840000E-01
  1.02741000E-01  7.50000000E-01  3.38650000E+01  5.09479000E+00  1.15879000E+00
  3.25840000E-01  1.02741000E-01  7.50000000E-01  3.38650000E+01  5.09479000E+00
  1.15879000E+00  3.25840000E-01  1.02741000E-01  7.50000000E-01  3.38650000E+01
  5.09479000E+00  1.15879000E+00  3.25840000E-01  1.02741000E-01  7.50000000E-01
Contraction coefficients                   R   N=         100
  1.89515008E-03  1.43859006E-02  7.07320031E-02  2.40001011E-01  5.94797026E-01
  2.80802012E-01  1.13889012E-01  9.20811101E-01 -3.27447036E-03  1.00000000E+00
  1.00000000E+00  1.00000000E+00  1.00000000E+00  1.89515008E-03  1.43859006E-02
  7.07320031E-02  2.40001011E-01  5.94797026E-01  2.80802012E-01  1.13889012E-01
  9.20811101E-01 -3.27447036E-03  1.00000000E+00  1.00000000E+00  1.00000000E+00
  1.00000000E+00  1.96665025E-03  1.52306019E-02  7.61269097E-02  2.60801033E-01
  6.16462078E-01  2.21006028E-01  1.14660081E-01  9.19999648E-01 -3.03068213E-03
  1.00000000E+00  1.00000000E+00  1.00000000E+00  1.00000000E+00  2.54938145E-02
  1.90373109E-01  8.52161486E-01  1.00000000E+00  1.00000000E+00  1.00000000E+00
  2.54938145E-02  1.90373109E-01  8.52161486E-01  1.00000000E+00  1.00000000E+00
  1.00000000E+00  2.54938145E-02  1.90373109E-01  8.52161486E-01  1.00000000E+00
  1.00000000E+00  1.00000000E+00  1.96665025E-03  1.52306019E-02  7.61269097E-02
  2.60801033E-01  6.16462078E-01  2.21006028E-01  1.14660081E-01  9.19999648E-01
 -3.03068213E-03  1.00000000E+00  1.00000000E+00  1.00000000E+00  1.00000000E+00
  2.54938145E-02  1.90373109E-01  8.52161486E-01  1.00000000E+00  1.00000000E+00
  1.00000000E+00  2.54938145E-02  1.90373109E-01  8.52161486E-01  1.00000000E+00
  1.00000000E+00  1.00000000E+00  2.54938145E-02  1.90373109E-01  8.52161486E-01
  1.00000000E+00  1.00000000E+00  1.00000000E+00  2.54938145E-02  1.90373109E-01
  8.52161486E-01  1.00000000E+00  1.00000000E+00  1.00000000E+00  2.54938145E-02
  1.90373109E-01  8.52161486E-01  1.00000000E+00  1.00000000E+00  1.00000000E+00
P(S=P) Contraction coefficients            R   N=         100
  0.00000000E+00  0.00000000E+00  0.00000000E+00  0.00000000E+00  0.00000000E+00
  0.00000000E+00  3.65113974E-02  2.37152983E-01  8.19701941E-01  1.00000000E+00
  1.00000000E+00  1.00000000E+00  0.00000000E+00  0.00000000E+00  0.00000000E+00
  0.00000000E+00  0.00000000E+00  0.00000000E+00  0.00000000E+00  3.65113974E-02
  2.37152983E-01  8.19701941E-01  1.00000000E+00  1.00000000E+00  1.00000000E+00
  0.00000000E+00  0.00000000E+00  0.00000000E+00  0.00000000E+00  0.00000000E+00
  0.00000000E+00  0.00000000E+00  4.02486927E-02  2.37593957E-01  8.15853851E-01
  1.00000000E+00  1.00000000E+00  1.00000000E+00  0.00000000E+00  0.00000000E+00
  0.00000000E+00  0.00000000E+00  0.00000000E+00  0.00000000E+00  0.00000000E+00
  0.00000000E+00  0.00000000E+00  0.00000000E+00  0.00000000E+00  0.00000000E+00
  0.00000000E+00  0.00000000E+00  0.00000000E+00  0.00000000E+00  0.00000000E+00
  0.00000000E+00  0.00000000E+00  0.00000000E+00  0.00000000E+00  0.00000000E+00
  0.00000000E+00  0.00000000E+00  0.00000000E+00  4.02486927E-02  2.37593957E-01
  8.15853851E-01  1.00000000E+00  1.00000000E+00  1.00000000E+00  0.00000000E+00
  0.00000000E+00  0.00000000E+00  0.00000000E+00  0.00000000E+00  0.00000000E+00
  0.00000000E+00  0.00000000E+00  0.00000000E+00  0.00000000E+00  0.00000000E+00
  0.00000000E+00  0.00000000E+00  0.00000000E+00  0.00000000E+00  0.00000000E+00
  0.00000000E+00  0.00000000E+00  0.00000000E+00  0.00000000E+00  0.00000000E+00
  0.00000000E+00  0.00000000E+00  0.00000000E+00  0.00000000E+00  0.00000000E+00
  0.00000000E+00  0.00000000E+00  0.00000000E+00  0.00000000E+00  0.00000000E+00
Coordinates of each shell                  R   N=         168
  2.31031325E+00  1.33634800E+00 -6.69416585E-01  2.31031325E+00  1.33634800E+00
 -6.69416585E-01  2.31031325E+00  1.33634800E+00 -6.69416585E-01  2.31031325E+00
  1.33634800E+00 -6.69416585E-01  2.31031325E+00  1.33634800E+00 -6.69416585E-01
  2.31031325E+00  1.33634800E+00 -6.69416585E-01 -2.31027157E+00 -1.33628921E+00
 -6.69503513E-01 -2.31027157E+00 -1.33628921E+00 -6.69503513E-01 -2.31027157E+00
 -1.33628921E+00 -6.69503513E-01 -2.31027157E+00 -1.33628921E+00 -6.69503513E-01
 -2.31027157E+00 -1.33628921E+00 -6.69503513E-01 -2.31027157E+00 -1.33628921E+00
 -6.69503513E-01 -3.44077730E+00  6.99779345E-01  7.19307245E-01 -3.44077730E+00
  6.99779345E-01  7.19307245E-01 -3.44077730E+00  6.99779345E-01  7.19307245E-01
 -3.44077730E+00  6.99779345E-01  7.19307245E-01 -3.44077730E+00  6.99779345E-01
  7.19307245E-01 -3.44077730E+00  6.99779345E-01  7.19307245E-01 -4.96642302E+00
  1.56328800E+00 -3.81006583E-01 -4.96642302E+00  1.56328800E+00 -3.81006583E-01
 -4.96642302E+00  1.56328800E+00 -3.81006583E-01 -4.96642302E+00  1.56328800E+00
 -3.81006583E-01 -4.22014203E+00 -1.36178708E-01  2.43222493E+00 -4.22014203E+00
 -1.36178708E-01  2.43222493E+00 -4.22014203E+00 -1.36178708E-01  2.43222493E+00
 -4.22014203E+00 -1.36178708E-01  2.43222493E+00 -2.03796160E+00  2.13278873E+00
  1.21276954E+00 -2.03796160E+00  2.13278873E+00  1.21276954E+00 -2.03796160E+00
  2.13278873E+00  1.21276954E+00 -2.03796160E+00  2.13278873E+00  1.21276954E+00
  3.44074339E+00 -6.99841496E-01  7.19278899E-01  3.44074339E+00 -6.99841496E-01
  7.19278899E-01  3.44074339E+00 -6.99841496E-01  7.19278899E-01  3.44074339E+00
 -6.99841496E-01  7.19278899E-01  3.44074339E+00 -6.99841496E-01  7.19278899E-01
  3.44074339E+00 -6.99841496E-01  7.19278899E-01  4.96635131E+00 -1.56335204E+00
 -3.81089731E-01  4.96635131E+00 -1.56335204E+00 -3.81089731E-01  4.96635131E+00
 -1.56335204E+00 -3.81089731E-01  4.96635131E+00 -1.56335204E+00 -3.81089731E-01
  4.22014781E+00  1.35993725E-01  2.43223816E+00  4.22014781E+00  1.35993725E-01
  2.43223816E+00  4.22014781E+00  1.35993725E-01  2.43223816E+00  4.22014781E+00
  1.35993725E-01  2.43223816E+00  2.03786911E+00 -2.13282065E+00  1.21266561E+00
  2.03786911E+00 -2.13282065E+00  1.21266561E+00  2.03786911E+00 -2.13282065E+00
  1.21266561E+00  2.03786911E+00 -2.13282065E+00  1.21266561E+00  1.51125761E+00
  8.50524077E-01 -2.22395066E+00  1.51125761E+00  8.50524077E-01 -2.22395066E+00
  1.51125761E+00  8.50524077E-01 -2.22395066E+00  1.51125761E+00  8.50524077E-01
 -2.22395066E+00 -1.51122916E+00 -8.50340563E-01 -2.22400735E+00 -1.51122916E+00
 -8.50340563E-01 -2.22400735E+00 -1.51122916E+00 -8.50340563E-01 -2.22400735E+00
 -1.51122916E+00 -8.50340563E-01 -2.22400735E+00
Constraint Structure                       R   N=          36
  2.31031325E+00  1.33634800E+00 -6.69416585E-01 -2.31027157E+00 -1.33628921E+00
 -6.69503513E-01 -3.44077730E+00  6.99779345E-01  7.19307245E-01 -4.96642302E+00
  1.56328800E+00 -3.81006583E-01 -4.22014203E+00 -1.36178708E-01  2.43222493E+00
 -2.03796160E+00  2.13278873E+00  1.21276954E+00  3.44074339E+00 -6.99841496E-01
  7.19278899E-01  4.96635131E+00 -1.56335204E+00 -3.81089731E-01  4.22014781E+00
  1.35993725E-01  2.43223816E+00  2.03786911E+00 -2.13282065E+00  1.21266561E+00
  1.51125761E+00  8.50524077E-01 -2.22395066E+00 -1.51122916E+00 -8.50340563E-01
 -2.22400735E+00
Num ILSW                                   I              100
ILSW                                       I   N=         100
           0           0           0           0           2           0
           0           0           0           0         402          -1
           0           0           0           0           0           0
           0           0           0           0           0           0
           1           0           0           0           0           0
           0           0      100000           0          -1           0
           0           0           0           0           0           0
           0           0           0           1           0           0
           0           0           1           0           0           0
           0           0           4          41           0           0
           0           0           5           0           0           0
           0           0           0          12           0           0
           0           0           0           0           0           0
           0           0           0           0           0           0
           0           0           0           0           0           0
           0           0           0           0           0           0
           0           0           0           0
Num RLSW                                   I               41
RLSW                                       R   N=          41
  8.00000000E-01  7.20000000E-01  1.00000000E+00  8.10000000E-01  2.00000000E-01
  0.00000000E+00  0.00000000E+00  1.00000000E+00  0.00000000E+00  0.00000000E+00
  0.00000000E+00  0.00000000E+00  1.00000000E+00  0.00000000E+00  0.00000000E+00
  0.00000000E+00  0.00000000E+00  1.00000000E+00  0.00000000E+00  0.00000000E+00
  0.00000000E+00  0.00000000E+00  1.00000000E+00  0.00000000E+00  0.00000000E+00
  0.00000000E+00  0.00000000E+00  1.00000000E+00  0.00000000E+00  0.00000000E+00
  0.00000000E+00  0.00000000E+00  1.00000000E+00  0.00000000E+00  0.00000000E+00
  0.00000000E+00  0.00000000E+00  0.00000000E+00  1.00000000E+00  1.00000000E+00
  0.00000000E+00
MxBond                                     I                4
NBond                                      I   N=          12
           2           2           4           1           1           1
           4           1           1           1           1           1
IBond                                      I   N=          48
           7          11           0           0           3          12
           0           0           2           4           5           6
           3           0           0           0           3           0
           0           0           3           0           0           0
           1           8           9          10           7           0
           0           0           7           0           0           0
           7           0           0           0           1           0
           0           0           2           0           0           0
RBond                                      R   N=          48
  1.00000000E+00  1.00000000E+00  0.00000000E+00  0.00000000E+00  1.00000000E+00
  1.00000000E+00  0.00000000E+00  0.00000000E+00  1.00000000E+00  1.00000000E+00
  1.00000000E+00  1.00000000E+00  1.00000000E+00  0.00000000E+00  0.00000000E+00
  0.00000000E+00  1.00000000E+00  0.00000000E+00  0.00000000E+00  0.00000000E+00
  1.00000000E+00  0.00000000E+00  0.00000000E+00  0.00000000E+00  1.00000000E+00
  1.00000000E+00  1.00000000E+00  1.00000000E+00  1.00000000E+00  0.00000000E+00
  0.00000000E+00  0.00000000E+00  1.00000000E+00  0.00000000E+00  0.00000000E+00
  0.00000000E+00  1.00000000E+00  0.00000000E+00  0.00000000E+00  0.00000000E+00
  1.00000000E+00  0.00000000E+00  0.00000000E+00  0.00000000E+00  1.00000000E+00
  0.00000000E+00  0.00000000E+00  0.00000000E+00
Virial Ratio                               R      2.003738359205948E+00
SCF Energy                                 R     -2.315220047555995E+02
Total Energy                               R     -2.315220047555995E+02
RMS Density                                R      2.476495498402296E-09
External E-field                           R   N=          35
  0.00000000E+00  0.00000000E+00  0.00000000E+00  0.00000000E+00  0.00000000E+00
  0.00000000E+00  0.00000000E+00  0.00000000E+00  0.00000000E+00  0.00000000E+00
  0.00000000E+00  0.00000000E+00  0.00000000E+00  0.00000000E+00  0.00000000E+00
  0.00000000E+00  0.00000000E+00  0.00000000E+00  0.00000000E+00  0.00000000E+00
  0.00000000E+00  0.00000000E+00  0.00000000E+00  0.00000000E+00  0.00000000E+00
  0.00000000E+00  0.00000000E+00  0.00000000E+00  0.00000000E+00  0.00000000E+00
  0.00000000E+00  0.00000000E+00  0.00000000E+00  0.00000000E+00  0.00000000E+00
IOpCl                                      I                0
IROHF                                      I                0
Alpha Orbital Energies                     R   N=         136
 -1.91257376E+01 -1.91257367E+01 -1.02119480E+01 -1.02119469E+01 -1.02782742E+00
 -1.01627811E+00 -6.92522369E-01 -6.90699022E-01 -5.23200296E-01 -5.07425390E-01
 -4.54291923E-01 -4.36857484E-01 -4.30160421E-01 -4.29958729E-01 -3.45931910E-01
 -3.31547686E-01 -2.84013790E-01 -2.82983256E-01 -2.08954400E-02  1.83251791E-02
  2.04303436E-02  3.69614884E-02  5.71874493E-02  5.72283201E-02  6.57391412E-02
  9.39197674E-02  1.11166763E-01  1.37603880E-01  1.44208973E-01  1.59381238E-01
  1.59448859E-01  1.74148111E-01  1.87805982E-01  1.95169891E-01  2.01583963E-01
  2.13403490E-01  2.38514540E-01  2.38886963E-01  2.48372073E-01  2.56272738E-01
  2.75229841E-01  2.92531892E-01  3.52248581E-01  3.83346895E-01  3.96741841E-01
  4.05845939E-01  4.31794389E-01  4.60018993E-01  5.02563119E-01  5.30823574E-01
  5.32312523E-01  5.49479733E-01  5.91947628E-01  6.24854199E-01  6.25281842E-01
  6.44403319E-01  6.78544630E-01  6.80998961E-01  8.74304700E-01  8.75949065E-01
  9.41810227E-01  9.49938696E-01  9.76432373E-01  1.04004546E+00  1.06611645E+00
  1.08373655E+00  1.08745288E+00  1.19712861E+00  1.26250986E+00  1.27566951E+00
  1.35218385E+00  1.42327739E+00  1.43563830E+00  1.44613523E+00  1.45090630E+00
  1.48996173E+00  1.50290908E+00  1.55101299E+00  1.55427602E+00  1.56291760E+00
  1.61105069E+00  1.61861242E+00  1.65100784E+00  1.65363519E+00  1.70243579E+00
  1.74687126E+00  1.77007727E+00  1.78263807E+00  1.95946189E+00  1.98907596E+00
  1.99793766E+00  2.06579382E+00  2.12513186E+00  2.13174720E+00  2.22679293E+00
  2.23201528E+00  2.36442922E+00  2.40145657E+00  2.41048899E+00  2.46272849E+00
  2.46310842E+00  2.48500334E+00  2.49473943E+00  2.50904075E+00  2.51146562E+00
  2.52468778E+00  2.64641157E+00  2.71978661E+00  2.80623357E+00  2.82132648E+00
  2.95540335E+00  2.97047493E+00  3.02092738E+00  3.10068703E+00  3.18290997E+00
  3.24458670E+00  3.24661469E+00  3.28636122E+00  3.69382452E+00  3.74087192E+00
  3.77591924E+00  3.83808529E+00  3.92290707E+00  3.93426401E+00  3.96562332E+00
  4.00288928E+00  4.99316822E+00  5.07661507E+00  5.29254513E+00  5.30550675E+00
  5.63298711E+00  5.67187263E+00  2.38931617E+01  2.38951845E+01  4.98839535E+01
  4.98880866E+01
Alpha MO coefficients                      R   N=       18496
 -2.25256186E-01 -1.91927617E-01  4.90412156E-06  4.97340526E-04  1.76043540E-04
 -5.42698282E-03  6.83820734E-05  8.27538066E-06  7.39377460E-05  3.40070508E-03
  2.69775185E-04 -3.12064657E-04  3.51592258E-04 -3.98205352E-03  6.40727129E-04
  7.82062041E-04  2.04669544E-04 -7.37705406E-05 -7.30682231E-05 -4.01611741E-05
 -2.99233560E-05 -3.73504057E-05  5.03218138E-01  4.28758400E-01  1.98596916E-05
  1.12800775E-03 -3.96363717E-04  1.21732879E-02  1.46947958E-04 -3.22251146E-05
 -1.54650318E-04 -7.54246375E-03  3.93375993E-04 -6.10029220E-04 -7.72929949E-04
  7.86040436E-03  8.12261395E-04  1.28404522E-03 -2.29432081E-04  1.73703930E-04
 -1.85060027E-04 -9.76912995E-05  4.30540992E-05  6.06882072E-05  2.06194182E-05
 -8.73158908E-05  3.73984951E-05 -1.21264846E-04 -7.25540476E-05  4.48117257E-04
  1.18182892E-04  2.20464089E-05 -2.26440774E-05  1.44918828E-03 -9.67410424E-05
 -6.22368378E-04 -3.10303876E-04 -2.12526299E-03 -8.93545907E-04  8.00511119E-04
  4.18738930E-04  3.96139181E-07  9.53035592E-05 -1.34783048E-04  8.96053162E-05
  1.40032607E-04  1.22548728E-05 -6.04992056E-04 -6.38199351E-04 -1.54645491E-04
  1.71120348E-04 -1.97989405E-05  1.37435000E-05 -6.52533341E-04 -1.52633268E-04
 -6.87149122E-05 -1.58886474E-05  1.32457373E-04  1.94782066E-05 -7.04000705E-04
  4.38460892E-04  8.95508348E-05  2.15290139E-04  8.71647430E-05 -9.53483033E-06
  4.15716072E-05  2.14158851E-06 -6.30248685E-05  3.37725991E-05 -1.97613906E-04
  8.86725929E-05  4.24060026E-05 -1.39012699E-05 -5.19482286E-04 -1.01353773E-04
 -5.19574078E-04  2.33845419E-04  1.24919657E-03 -5.74423857E-04  3.07136673E-04
 -7.01539249E-05  8.62108069E-07  2.60272512E-05 -4.97676236E-05 -4.26502320E-05
 -6.69964548E-05 -8.40416634E-06  2.49803115E-04  3.84536369E-04 -6.58861317E-05
  8.29008280E-05 -6.52221372E-06 -2.53349787E-05  3.74273052E-04  3.36715456E-06
 -5.02413221E-05  3.45877647E-07 -6.97288439E-05  8.17107166E-06  2.66362871E-04
 -8.56725250E-04  1.02444869E-04  8.14074265E-05 -7.72569011E-06  3.94857933E-05
  2.73723153E-05  1.65339128E-03  2.00333323E-04  1.49495930E-04  3.11095663E-04
 -2.58567496E-05 -2.94187746E-04 -2.60855654E-03  3.77006316E-04  3.05692539E-04
 -7.23432194E-04  5.03218346E-01  4.28756403E-01 -2.43846197E-05 -1.13646722E-03
 -3.98011158E-04  1.21981043E-02 -1.44026241E-04  5.76562607E-05 -1.49380046E-04
 -7.51505958E-03 -2.88472589E-04  5.66485850E-04 -7.66608428E-04  7.34121934E-03
 -5.01933510E-04 -1.05185844E-03 -1.15361038E-04  1.78184825E-04  1.96011847E-04
  1.01646192E-04  3.11450033E-05  4.92649950E-05  2.25256648E-01  1.91923157E-01
  1.49024386E-05  5.16309881E-04 -1.79542756E-04  5.48242443E-03  6.18625573E-05
 -4.85078599E-05 -6.21590824E-05 -3.33952414E-03  3.54449664E-05 -2.14582529E-04
 -3.37545925E-04  2.82275123E-03 -5.24308423E-05  2.63564735E-04  5.03162640E-05
  8.37457814E-05 -9.75135667E-05 -4.90675095E-05  3.29071537E-06  1.18686515E-05
  8.77261395E-06 -3.53555050E-05  3.86485396E-05 -4.11630234E-05 -3.05283703E-05
  2.05071207E-04 -7.66278712E-07 -3.89622100E-05 -4.62208125E-05  8.42677563E-04
  4.38357437E-05  8.31607832E-05  3.62515944E-06 -5.04220015E-04 -1.38098401E-04
  4.35231036E-04  3.63465215E-04  1.73697414E-06  6.76260737E-05 -7.61878139E-05
  3.63122130E-05  5.62182824E-05  1.10673717E-06 -3.02356154E-04 -1.37298328E-04
 -7.42325190E-05  6.71405468E-05 -3.19596392E-05 -2.26448038E-05 -1.68713207E-04
 -1.65799802E-04 -1.51142263E-06 -1.82975748E-05  4.36176320E-05  3.40832696E-05
 -3.88390145E-04 -7.95072289E-04 -5.35063422E-05  1.18845048E-04  8.59922525E-05
  2.02781038E-05 -8.45326084E-05 -5.37372947E-05  1.11485325E-04 -7.10943183E-05
  4.51444812E-04 -7.81399047E-05  1.43840188E-05 -4.95557522E-05  1.59393837E-03
  3.16985317E-05  3.52588320E-04 -2.03998509E-04 -1.79185342E-03  6.98209151E-04
 -8.57927561E-04  5.49985042E-04  1.57411563E-06 -1.13909379E-04  1.46604588E-04
  8.67895859E-05  1.35207286E-04  8.98920073E-06 -6.28519501E-04 -5.27496577E-04
  1.58377051E-04 -1.64070749E-04 -3.70344978E-05 -7.73338972E-06 -5.60518686E-04
 -2.25303503E-04  4.69049703E-05  2.42233787E-05  1.20767845E-04  3.83954153E-05
 -7.58653172E-04 -3.00908131E-04 -1.97557980E-05 -2.32053486E-04  1.22184391E-04
  5.38898660E-06 -4.10988634E-04 -2.06456984E-03 -3.41676473E-04 -2.91439636E-04
 -7.37725996E-04  3.03238152E-05 -2.88285384E-04 -4.38477557E-04  1.21372280E-04
  1.17800038E-04 -3.42966502E-04 -2.98216875E-06 -1.12754974E-05 -5.31176055E-06
 -7.79221957E-06  1.45430778E-05  8.37405206E-05  3.45978261E-05 -3.45524951E-05
 -2.35737676E-05  1.60064274E-04  5.65879881E-05 -2.37932213E-06 -1.58989621E-05
 -4.64052772E-04  4.37102057E-04 -1.02101982E-04  5.11106085E-05  9.41971125E-06
  2.13559704E-05  1.59933908E-05 -4.06337659E-06  1.46378253E-05 -2.64458937E-05
 -9.40486714E-05 -3.81642703E-05  9.30630705E-05  3.32204416E-05  7.43891369E-04
 -9.60735100E-05  7.06854217E-05  1.90739763E-04 -1.37052201E-03 -1.51511268E-04
 -1.52477334E-04  5.57308529E-06  8.64867814E-03  1.05711320E-04  2.59517959E-03
  3.14023685E-04 -2.60442640E-05  1.10840697E-04 -7.96616471E-05  4.55121750E-05
  7.91973293E-05  5.57890510E-01  4.58962072E-01  3.68376077E-04 -8.11615854E-04
 -5.91499126E-04  1.88531218E-02 -8.10990996E-04  1.64854796E-03  1.34519232E-03
 -1.05253663E-02 -1.01977586E-03  9.42364616E-04  7.64867511E-04 -4.87899847E-03
 -5.46560845E-04  1.52965354E-04 -5.22730456E-05  5.98862755E-05  4.52734014E-04
 -8.00306636E-04  3.19114354E-04  7.17186329E-04  1.58284342E-04 -3.02735833E-03
  2.34529287E-03 -1.49165878E-03  7.88905706E-04 -1.21253504E-03  1.56698128E-04
 -3.32421591E-03  3.13239971E-03 -7.62819950E-04 -1.02165210E-03  1.75232210E-03
  2.00523155E-04 -3.48402806E-03  3.69521640E-03  1.56153926E-03  1.44363704E-03
  4.44903518E-04  7.61031058E-02  6.26055851E-02 -4.29552538E-05  1.13849718E-04
 -7.96317629E-05  2.59613552E-03  4.16608570E-05 -2.41188533E-04  1.74370760E-04
 -9.98819371E-04  3.43720232E-04 -3.49780110E-04  1.96998672E-04  8.34147208E-04
 -5.64235925E-04 -1.05205767E-04 -6.06669086E-05  1.43420850E-05 -8.16424432E-05
  1.30549816E-04  4.31027585E-05  1.30663732E-04  1.56888044E-05 -4.14861630E-04