 Entering Gaussian System, Link 0=/Applications/Gaussian/g16/g16
 Input=paracetamol.com
 Output=paracetamol.log
 Initial command:
 /Applications/Gaussian/g16/l1.exe "/var/folders/8d/fj_bgxp52vnfqt8xr3qz3b1h0000gn/T/Gau-73338.inp" -scrdir="/var/folders/8d/fj_bgxp52vnfqt8xr3qz3b1h0000gn/T/"
 Entering Link 1 = /Applications/Gaussian/g16/l1.exe PID=     73339.
  
 Copyright (c) 1988-2017, Gaussian, Inc.  All Rights Reserved.
  
 This is part of the Gaussian(R) 16 program.  It is based on
 the Gaussian(R) 09 system (copyright 2009, Gaussian, Inc.),
 the Gaussian(R) 03 system (copyright 2003, Gaussian, Inc.),
 the Gaussian(R) 98 system (copyright 1998, Gaussian, Inc.),
 the Gaussian(R) 94 system (copyright 1995, Gaussian, Inc.),
 the Gaussian 92(TM) system (copyright 1992, Gaussian, Inc.),
 the Gaussian 90(TM) system (copyright 1990, Gaussian, Inc.),
 the Gaussian 88(TM) system (copyright 1988, Gaussian, Inc.),
 the Gaussian 86(TM) system (copyright 1986, Carnegie Mellon
 University), and the Gaussian 82(TM) system (copyright 1983,
 Carnegie Mellon University). Gaussian is a federally registered
 trademark of Gaussian, Inc.
  
 This software contains proprietary and confidential information,
 including trade secrets, belonging to Gaussian, Inc.
  
 This software is provided under written license and may be
 used, copied, transmitted, or stored only in accord with that
 written license.
  
 The following legend is applicable only to US Government
 contracts under FAR:
  
                    RESTRICTED RIGHTS LEGEND
  
 Use, reproduction and disclosure by the US Government is
 subject to restrictions as set forth in subparagraphs (a)
 and (c) of the Commercial Computer Software - Restricted
 Rights clause in FAR 52.227-19.
  
 Gaussian, Inc.
 340 Quinnipiac St., Bldg. 40, Wallingford CT 06492
  
  
 ---------------------------------------------------------------
 Warning -- This program may not be used in any manner that
 competes with the business of Gaussian, Inc. or will provide
 assistance to any competitor of Gaussian, Inc.  The licensee
 of this program is prohibited from giving any competitor of
 Gaussian, Inc. access to this program.  By using this program,
 the user acknowledges that Gaussian, Inc. is engaged in the
 business of creating and licensing software in the field of
 computational chemistry and represents and warrants to the
 licensee that it is not a competitor of Gaussian, Inc. and that
 it will not use this program in any manner prohibited above.
 ---------------------------------------------------------------
  

 Cite this work as:
 Gaussian 16, Revision B.01,
 M. J. Frisch, G. W. Trucks, H. B. Schlegel, G. E. Scuseria, 
 M. A. Robb, J. R. Cheeseman, G. Scalmani, V. Barone, 
 G. A. Petersson, H. Nakatsuji, X. Li, M. Caricato, A. V. Marenich, 
 J. Bloino, B. G. Janesko, R. Gomperts, B. Mennucci, H. P. Hratchian, 
 J. V. Ortiz, A. F. Izmaylov, J. L. Sonnenberg, D. Williams-Young, 
 F. Ding, F. Lipparini, F. Egidi, J. Goings, B. Peng, A. Petrone, 
 T. Henderson, D. Ranasinghe, V. G. Zakrzewski, J. Gao, N. Rega, 
 G. Zheng, W. Liang, M. Hada, M. Ehara, K. Toyota, R. Fukuda, 
 J. Hasegawa, M. Ishida, T. Nakajima, Y. Honda, O. Kitao, H. Nakai, 
 T. Vreven, K. Throssell, J. A. Montgomery, Jr., J. E. Peralta, 
 F. Ogliaro, M. J. Bearpark, J. J. Heyd, E. N. Brothers, K. N. Kudin, 
 V. N. Staroverov, T. A. Keith, R. Kobayashi, J. Normand, 
 K. Raghavachari, A. P. Rendell, J. C. Burant, S. S. Iyengar, 
 J. Tomasi, M. Cossi, J. M. Millam, M. Klene, C. Adamo, R. Cammi, 
 J. W. Ochterski, R. L. Martin, K. Morokuma, O. Farkas, 
 J. B. Foresman, and D. J. Fox, Gaussian, Inc., Wallingford CT, 2016.
 
 ******************************************
 Gaussian 16:  EM64M-G16RevB.01 20-Dec-2017
                 8-Aug-2021 
 ******************************************
 %chk=paracetamol.chk
 %nproc=4
 Will use up to    4 processors via shared memory.
 ---------------
 # ub3lyp/6-31G*
 ---------------
 1/38=1,172=1/1;
 2/12=2,17=6,18=5,40=1/2;
 3/5=1,6=6,7=1,11=2,25=1,30=1,74=-5,116=2/1,2,3;
 4//1;
 5/5=2,38=5/2;
 6/7=2,8=2,9=2,10=2,28=1/1;
 99/5=1,9=1/99;
 -----
 title
 -----
 Symbolic Z-matrix:
 Charge =  1 Multiplicity = 2
 C                    -1.2008    0.52014   0.02618 
 C                    -0.65849   1.79875   0.00662 
 C                     0.73147   1.95418   0.00966 
 C                     1.58002   0.83735   0.03236 
 C                     1.01361  -0.43872   0.05166 
 C                    -0.37629  -0.59645   0.0485 
 C                     3.99063   0.15254   0.05602 
 C                     5.34795   0.81013   0.0486 
 H                     6.12973   0.04588   0.07389 
 H                     5.46548   1.40767  -0.85985 
 H                     5.45354   1.45398   0.92638 
 O                    -2.54818   0.31752   0.02422 
 H                    -2.99416   1.17969   0.00857 
 O                     3.88225  -1.06748   0.07858 
 N                     2.96821   1.08475   0.03403 
 H                     3.24493   2.05794   0.01754 
 H                    -1.29266   2.67914  -0.01097 
 H                     1.13939   2.96139  -0.00578 
 H                     1.6235   -1.33635   0.06931 
 H                    -0.80859  -1.59316   0.06357 
 
                          Input orientation:                          
 ---------------------------------------------------------------------
 Center     Atomic      Atomic             Coordinates (Angstroms)
 Number     Number       Type             X           Y           Z
 ---------------------------------------------------------------------
      1          6           0       -1.200800    0.520140    0.026180
      2          6           0       -0.658490    1.798750    0.006620
      3          6           0        0.731470    1.954180    0.009660
      4          6           0        1.580020    0.837350    0.032360
      5          6           0        1.013610   -0.438720    0.051660
      6          6           0       -0.376290   -0.596450    0.048500
      7          6           0        3.990630    0.152540    0.056020
      8          6           0        5.347950    0.810130    0.048600
      9          1           0        6.129730    0.045880    0.073890
     10          1           0        5.465480    1.407670   -0.859850
     11          1           0        5.453540    1.453980    0.926380
     12          8           0       -2.548180    0.317520    0.024220
     13          1           0       -2.994160    1.179690    0.008570
     14          8           0        3.882250   -1.067480    0.078580
     15          7           0        2.968210    1.084750    0.034030
     16          1           0        3.244930    2.057940    0.017540
     17          1           0       -1.292660    2.679140   -0.010970
     18          1           0        1.139390    2.961390   -0.005780
     19          1           0        1.623500   -1.336350    0.069310
     20          1           0       -0.808590   -1.593160    0.063570
 ---------------------------------------------------------------------
                    Distance matrix (angstroms):
                    1          2          3          4          5
     1  C    0.000000
     2  C    1.389002   0.000000
     3  C    2.406327   1.398627   0.000000
     4  C    2.798861   2.436366   1.402805   0.000000
     5  C    2.413229   2.793603   2.409842   1.396262   0.000000
     6  C    1.388196   2.412131   2.781071   2.425529   1.398825
     7  C    5.204514   4.932217   3.724269   2.506106   3.035170
     8  C    6.555206   6.087401   4.756286   3.768063   4.510669
     9  H    7.346010   7.011206   5.725989   4.618226   5.139068
    10  H    6.783218   6.197316   4.844128   4.027171   4.905013
    11  H    6.779577   6.190455   4.836168   4.022892   4.905143
    12  O    1.362531   2.401100   3.665375   4.160808   3.641291
    13  H    1.910878   2.416318   3.805280   4.587034   4.322422
    14  O    5.325475   5.370174   4.366073   2.988440   2.936862
    15  N    4.207076   3.696417   2.399898   1.410064   2.478252
    16  H    4.704192   3.912031   2.515613   2.064458   3.348621
    17  H    2.161273   1.085158   2.150138   3.412676   3.878641
    18  H    3.381895   2.141088   1.086788   2.169598   3.402921
    19  H    3.380101   3.878177   3.409819   2.174449   1.085365
    20  H    2.149712   3.395707   3.867598   3.407904   2.157148
                    6          7          8          9         10
     6  C    0.000000
     7  C    4.430692   0.000000
     8  C    5.894522   1.508243   0.000000
     9  H    6.537701   2.141832   1.093571   0.000000
    10  H    6.242425   2.142277   1.093686   1.779767   0.000000
    11  H    6.241943   2.142750   1.093705   1.779527   1.786870
    12  O    2.356488   6.540968   7.911519   8.682303   8.135647
    13  H    3.163781   7.060069   8.350388   9.194300   8.507152
    14  O    4.284616   1.225032   2.382141   2.508139   3.084418
    15  N    3.743304   1.383778   2.395577   3.328070   2.672014
    16  H    4.489987   2.046484   2.445544   3.517617   2.474572
    17  H    3.401876   5.856735   6.898873   7.876112   6.928902
    18  H    3.867617   4.002877   4.726823   5.780142   4.675311
    19  H    2.132380   2.796475   4.298759   4.713458   4.811839
    20  H    1.086527   5.106862   6.609010   7.129295   7.015814
                   11         12         13         14         15
    11  H    0.000000
    12  O    8.132217   0.000000
    13  H    8.501838   0.970814   0.000000
    14  O    3.089576   6.578116   7.234617   0.000000
    15  N    2.666362   5.569497   5.963180   2.338706   0.000000
    16  H    2.463476   6.048903   6.300607   3.190322   1.011902
    17  H    6.920322   2.674849   2.268002   6.389435   4.549628
    18  H    4.664022   4.537524   4.501211   4.874648   2.620676
    19  H    4.815570   4.487787   5.258986   2.274715   2.769696
    20  H    7.017391   2.584264   3.531068   4.720227   4.629934
                   16         17         18         19         20
    16  H    0.000000
    17  H    4.580003   0.000000
    18  H    2.291302   2.448379   0.000000
    19  H    3.762037   4.963325   4.325572   0.000000
    20  H    5.455609   4.300282   4.954126   2.445618   0.000000
 Stoichiometry    C8H9NO2(1+,2)
 Framework group  C1[X(C8H9NO2)]
 Deg. of freedom    54
 Full point group                 C1      NOp   1
 Largest Abelian subgroup         C1      NOp   1
 Largest concise Abelian subgroup C1      NOp   1
                         Standard orientation:                         
 ---------------------------------------------------------------------
 Center     Atomic      Atomic             Coordinates (Angstroms)
 Number     Number       Type             X           Y           Z
 ---------------------------------------------------------------------
      1          6           0        2.597665   -0.123502    0.000077
      2          6           0        2.122643    1.181748   -0.000611
      3          6           0        0.742642    1.409240   -0.000361
      4          6           0       -0.162907    0.337866    0.000370
      5          6           0        0.336315   -0.966099    0.001169
      6          6           0        1.716138   -1.195882    0.001079
      7          6           0       -2.605938   -0.220850   -0.000711
      8          6           0       -3.927194    0.506528    0.000979
      9          1           0       -4.747755   -0.216318   -0.007402
     10          1           0       -4.008736    1.125116    0.899227
     11          1           0       -4.003795    1.139607   -0.887578
     12          8           0        3.932687   -0.395915   -0.000234
     13          1           0        4.422944    0.442014   -0.001763
     14          8           0       -2.561225   -1.445065   -0.002173
     15          7           0       -1.536355    0.657120    0.000356
     16          1           0       -1.762037    1.643534    0.000843
     17          1           0        2.801791    2.028109   -0.001341
     18          1           0        0.387701    2.436433   -0.000956
     19          1           0       -0.319482   -1.830938    0.002037
     20          1           0        2.095973   -2.213853    0.001752
 ---------------------------------------------------------------------
 Rotational constants (GHZ):           3.5705513           0.5477789           0.4763595
 Standard basis: 6-31G(d) (6D, 7F)
 There are   183 symmetry adapted cartesian basis functions of A   symmetry.
 There are   183 symmetry adapted basis functions of A   symmetry.
   183 basis functions,   344 primitive gaussians,   183 cartesian basis functions
    40 alpha electrons       39 beta electrons
       nuclear repulsion energy       571.1160069909 Hartrees.
 NAtoms=   20 NActive=   20 NUniq=   20 SFac= 1.00D+00 NAtFMM=   60 NAOKFM=F Big=F
 Integral buffers will be    131072 words long.
 Raffenetti 2 integral format.
 Two-electron integral symmetry is turned on.
 One-electron integrals computed using PRISM.
 NBasis=   183 RedAO= T EigKep=  4.20D-04  NBF=   183
 NBsUse=   183 1.00D-06 EigRej= -1.00D+00 NBFU=   183
 ExpMin= 1.61D-01 ExpMax= 5.48D+03 ExpMxC= 8.25D+02 IAcc=3 IRadAn=         5 AccDes= 0.00D+00
 Harris functional with IExCor=  402 and IRadAn=       5 diagonalized for initial guess.
 HarFok:  IExCor=  402 AccDes= 0.00D+00 IRadAn=         5 IDoV= 1 UseB2=F ITyADJ=14
 ICtDFT=  3500011 ScaDFX=  1.000000  1.000000  1.000000  1.000000
 FoFCou: FMM=F IPFlag=           0 FMFlag=      100000 FMFlg1=           0
         NFxFlg=           0 DoJE=T BraDBF=F KetDBF=T FulRan=T
         wScrn=  0.000000 ICntrl=       500 IOpCl=  0 I1Cent=   200000004 NGrid=           0
         NMat0=    1 NMatS0=      1 NMatT0=    0 NMatD0=    1 NMtDS0=    0 NMtDT0=    0
 Petite list used in FoFCou.
 Initial guess <Sx>= 0.0000 <Sy>= 0.0000 <Sz>= 0.5000 <S**2>= 0.7500 S= 0.5000
 Requested convergence on RMS density matrix=1.00D-08 within 128 cycles.
 Requested convergence on MAX density matrix=1.00D-06.
 Requested convergence on             energy=1.00D-06.
 No special actions if energy rises.
 Integral accuracy reduced to 1.0D-05 until final iterations.
 Initial convergence to 1.0D-05 achieved.  Increase integral accuracy.
 SCF Done:  E(UB3LYP) =  -515.204552181     A.U. after   22 cycles
            NFock= 22  Conv=0.60D-08     -V/T= 2.0094
 <Sx>= 0.0000 <Sy>= 0.0000 <Sz>= 0.5000 <S**2>= 0.7574 S= 0.5037
 <L.S>= 0.000000000000E+00
 Annihilation of the first spin contaminant:
 S**2 before annihilation     0.7574,   after     0.7500

 **********************************************************************

            Population analysis using the SCF Density.

 **********************************************************************

 Orbital symmetries:
 Alpha Orbitals:
       Occupied  (A) (A) (A) (A) (A) (A) (A) (A) (A) (A) (A) (A)
                 (A) (A) (A) (A) (A) (A) (A) (A) (A) (A) (A) (A)
                 (A) (A) (A) (A) (A) (A) (A) (A) (A) (A) (A) (A)
                 (A) (A) (A) (A)
       Virtual   (A) (A) (A) (A) (A) (A) (A) (A) (A) (A) (A) (A)
                 (A) (A) (A) (A) (A) (A) (A) (A) (A) (A) (A) (A)
                 (A) (A) (A) (A) (A) (A) (A) (A) (A) (A) (A) (A)
                 (A) (A) (A) (A) (A) (A) (A) (A) (A) (A) (A) (A)
                 (A) (A) (A) (A) (A) (A) (A) (A) (A) (A) (A) (A)
                 (A) (A) (A) (A) (A) (A) (A) (A) (A) (A) (A) (A)
                 (A) (A) (A) (A) (A) (A) (A) (A) (A) (A) (A) (A)
                 (A) (A) (A) (A) (A) (A) (A) (A) (A) (A) (A) (A)
                 (A) (A) (A) (A) (A) (A) (A) (A) (A) (A) (A) (A)
                 (A) (A) (A) (A) (A) (A) (A) (A) (A) (A) (A) (A)
                 (A) (A) (A) (A) (A) (A) (A) (A) (A) (A) (A) (A)
                 (A) (A) (A) (A) (A) (A) (A) (A) (A) (A) (A)
 Beta  Orbitals:
       Occupied  (A) (A) (A) (A) (A) (A) (A) (A) (A) (A) (A) (A)
                 (A) (A) (A) (A) (A) (A) (A) (A) (A) (A) (A) (A)
                 (A) (A) (A) (A) (A) (A) (A) (A) (A) (A) (A) (A)
                 (A) (A) (A)
       Virtual   (A) (A) (A) (A) (A) (A) (A) (A) (A) (A) (A) (A)
                 (A) (A) (A) (A) (A) (A) (A) (A) (A) (A) (A) (A)
                 (A) (A) (A) (A) (A) (A) (A) (A) (A) (A) (A) (A)
                 (A) (A) (A) (A) (A) (A) (A) (A) (A) (A) (A) (A)
                 (A) (A) (A) (A) (A) (A) (A) (A) (A) (A) (A) (A)
                 (A) (A) (A) (A) (A) (A) (A) (A) (A) (A) (A) (A)
                 (A) (A) (A) (A) (A) (A) (A) (A) (A) (A) (A) (A)
                 (A) (A) (A) (A) (A) (A) (A) (A) (A) (A) (A) (A)
                 (A) (A) (A) (A) (A) (A) (A) (A) (A) (A) (A) (A)
                 (A) (A) (A) (A) (A) (A) (A) (A) (A) (A) (A) (A)
                 (A) (A) (A) (A) (A) (A) (A) (A) (A) (A) (A) (A)
                 (A) (A) (A) (A) (A) (A) (A) (A) (A) (A) (A) (A)
 The electronic state is 2-A.
 Alpha  occ. eigenvalues --  -19.39071 -19.29910 -14.58973 -10.46550 -10.46470
 Alpha  occ. eigenvalues --  -10.45358 -10.40273 -10.39517 -10.38719 -10.38663
 Alpha  occ. eigenvalues --  -10.32803  -1.26667  -1.21457  -1.14280  -1.05417
 Alpha  occ. eigenvalues --   -0.95712  -0.94969  -0.88689  -0.83873  -0.80929
 Alpha  occ. eigenvalues --   -0.77594  -0.74212  -0.72753  -0.67154  -0.64419
 Alpha  occ. eigenvalues --   -0.63386  -0.62813  -0.61833  -0.61386  -0.59922
 Alpha  occ. eigenvalues --   -0.57675  -0.56796  -0.56717  -0.54147  -0.53796
 Alpha  occ. eigenvalues --   -0.52116  -0.48637  -0.45065  -0.42015  -0.41466
 Alpha virt. eigenvalues --   -0.20418  -0.19618  -0.13458  -0.09731  -0.09630
 Alpha virt. eigenvalues --   -0.07253  -0.03102  -0.01358  -0.00838   0.00541
 Alpha virt. eigenvalues --    0.02188   0.03127   0.04430   0.05499   0.05865
 Alpha virt. eigenvalues --    0.08160   0.12483   0.13089   0.14744   0.16748
 Alpha virt. eigenvalues --    0.18329   0.22587   0.31738   0.32000   0.32983
 Alpha virt. eigenvalues --    0.34593   0.35354   0.37196   0.37648   0.40182
 Alpha virt. eigenvalues --    0.40632   0.40742   0.41558   0.42134   0.43274
 Alpha virt. eigenvalues --    0.45428   0.45613   0.47866   0.48431   0.50025
 Alpha virt. eigenvalues --    0.53516   0.56269   0.58906   0.58958   0.62391
 Alpha virt. eigenvalues --    0.63838   0.64649   0.67649   0.68129   0.69825
 Alpha virt. eigenvalues --    0.71569   0.72596   0.73167   0.75958   0.76592
 Alpha virt. eigenvalues --    0.77079   0.79347   0.79713   0.81064   0.82549
 Alpha virt. eigenvalues --    0.85730   0.87214   0.87244   0.96345   0.98262
 Alpha virt. eigenvalues --    0.99097   1.02904   1.05613   1.08947   1.09142
 Alpha virt. eigenvalues --    1.11403   1.16213   1.16592   1.19895   1.23332
 Alpha virt. eigenvalues --    1.24647   1.25159   1.27668   1.29589   1.31012
 Alpha virt. eigenvalues --    1.34793   1.39689   1.49167   1.52757   1.53345
 Alpha virt. eigenvalues --    1.54791   1.59333   1.61858   1.63548   1.63775
 Alpha virt. eigenvalues --    1.67019   1.68258   1.68403   1.74453   1.75388
 Alpha virt. eigenvalues --    1.77494   1.77891   1.79453   1.83954   1.86552
 Alpha virt. eigenvalues --    1.87455   1.91684   1.93382   1.93553   1.98924
 Alpha virt. eigenvalues --    2.04365   2.06043   2.09719   2.10072   2.15348
 Alpha virt. eigenvalues --    2.16777   2.17878   2.21062   2.24242   2.26704
 Alpha virt. eigenvalues --    2.29536   2.35170   2.39910   2.42787   2.44528
 Alpha virt. eigenvalues --    2.49211   2.51811   2.54743   2.55141   2.61141
 Alpha virt. eigenvalues --    2.69686   2.76085   2.77075   2.81582   2.88125
 Alpha virt. eigenvalues --    3.10644   3.23686   3.73738   3.86131   3.88738
 Alpha virt. eigenvalues --    3.91681   3.92759   4.02340   4.07827   4.13101
 Alpha virt. eigenvalues --    4.21214   4.34269   4.57060
  Beta  occ. eigenvalues --  -19.38608 -19.29666 -14.58481 -10.46543 -10.46230
  Beta  occ. eigenvalues --  -10.45076 -10.40151 -10.39475 -10.38658 -10.38598
  Beta  occ. eigenvalues --  -10.32799  -1.25718  -1.20921  -1.13356  -1.04690
  Beta  occ. eigenvalues --   -0.94930  -0.94593  -0.88404  -0.83500  -0.80543
  Beta  occ. eigenvalues --   -0.77284  -0.73978  -0.72402  -0.66865  -0.64209
  Beta  occ. eigenvalues --   -0.62624  -0.61771  -0.61638  -0.59794  -0.59328
  Beta  occ. eigenvalues --   -0.57352  -0.56614  -0.55158  -0.53879  -0.53749
  Beta  occ. eigenvalues --   -0.50765  -0.45936  -0.44426  -0.41749
  Beta virt. eigenvalues --   -0.34452  -0.19082  -0.17721  -0.12097  -0.09607
  Beta virt. eigenvalues --   -0.09426  -0.07027  -0.01522  -0.01328  -0.00595
  Beta virt. eigenvalues --    0.00596   0.02482   0.03281   0.04567   0.05936
  Beta virt. eigenvalues --    0.06191   0.08437   0.12627   0.13263   0.15034
  Beta virt. eigenvalues --    0.16975   0.18700   0.22740   0.32118   0.32778
  Beta virt. eigenvalues --    0.33204   0.34861   0.35594   0.37554   0.37918
  Beta virt. eigenvalues --    0.40427   0.40909   0.41236   0.42009   0.42477
  Beta virt. eigenvalues --    0.43419   0.45583   0.46006   0.47966   0.49205
  Beta virt. eigenvalues --    0.50142   0.53991   0.56462   0.59076   0.59612
  Beta virt. eigenvalues --    0.63782   0.63970   0.64780   0.67779   0.68266
  Beta virt. eigenvalues --    0.70031   0.71667   0.72854   0.73332   0.76039
  Beta virt. eigenvalues --    0.77270   0.78154   0.79483   0.79840   0.81252
  Beta virt. eigenvalues --    0.82682   0.85874   0.87618   0.88051   0.96532
  Beta virt. eigenvalues --    0.98382   0.99260   1.03862   1.05905   1.09219
  Beta virt. eigenvalues --    1.10110   1.11700   1.16849   1.17202   1.20500
  Beta virt. eigenvalues --    1.23536   1.25225   1.25844   1.28006   1.30137
  Beta virt. eigenvalues --    1.31517   1.35205   1.40060   1.49473   1.53196
  Beta virt. eigenvalues --    1.54263   1.55022   1.60032   1.62235   1.64046
  Beta virt. eigenvalues --    1.64158   1.67577   1.68744   1.69286   1.74781
  Beta virt. eigenvalues --    1.75665   1.77681   1.78438   1.79620   1.84674
  Beta virt. eigenvalues --    1.86968   1.87817   1.92171   1.93973   1.94457
  Beta virt. eigenvalues --    1.99236   2.04403   2.06356   2.10279   2.11104
  Beta virt. eigenvalues --    2.15712   2.17856   2.18239   2.21607   2.24552
  Beta virt. eigenvalues --    2.26865   2.30773   2.35732   2.40274   2.43160
  Beta virt. eigenvalues --    2.45324   2.49926   2.52401   2.54942   2.55452
  Beta virt. eigenvalues --    2.61347   2.69899   2.76428   2.77597   2.81764
  Beta virt. eigenvalues --    2.88322   3.10851   3.23866   3.74405   3.86721
  Beta virt. eigenvalues --    3.89119   3.91922   3.93092   4.02824   4.08039
  Beta virt. eigenvalues --    4.13355   4.21610   4.34532   4.57543
          Condensed to atoms (all electrons):
               1          2          3          4          5          6
     1  C    4.485757   0.458996  -0.010772  -0.029604  -0.016334   0.487180
     2  C    0.458996   5.029528   0.515711  -0.019020  -0.032134  -0.076005
     3  C   -0.010772   0.515711   5.015034   0.455177  -0.065244  -0.030379
     4  C   -0.029604  -0.019020   0.455177   4.538398   0.509768  -0.019625
     5  C   -0.016334  -0.032134  -0.065244   0.509768   4.970918   0.508285
     6  C    0.487180  -0.076005  -0.030379  -0.019625   0.508285   4.970530
     7  C   -0.000019  -0.000068   0.004114  -0.019702   0.000743   0.000550
     8  C    0.000000   0.000002  -0.000423   0.006092   0.000540   0.000007
     9  H   -0.000000  -0.000000   0.000003  -0.000112  -0.000002  -0.000000
    10  H    0.000000  -0.000000   0.000003  -0.000080  -0.000024  -0.000000
    11  H    0.000000  -0.000000   0.000002  -0.000067  -0.000025  -0.000000
    12  O    0.313190  -0.054283   0.004544   0.000079   0.002763  -0.049212
    13  H   -0.025239  -0.002254   0.000572  -0.000014  -0.000185   0.005736
    14  O   -0.000007   0.000000   0.000219  -0.004792  -0.005541   0.000858
    15  N    0.000038   0.005064  -0.050394   0.271543  -0.060159   0.004310
    16  H   -0.000015   0.000129  -0.002105  -0.026928   0.003831  -0.000038
    17  H   -0.038695   0.355352  -0.022987   0.003038   0.000345   0.004201
    18  H    0.002865  -0.021283   0.353905  -0.041981   0.004677   0.000336
    19  H    0.003618   0.000051   0.004663  -0.028738   0.343107  -0.027615
    20  H   -0.031985   0.005439   0.000118   0.003082  -0.029129   0.357600
               7          8          9         10         11         12
     1  C   -0.000019   0.000000  -0.000000   0.000000   0.000000   0.313190
     2  C   -0.000068   0.000002  -0.000000  -0.000000  -0.000000  -0.054283
     3  C    0.004114  -0.000423   0.000003   0.000003   0.000002   0.004544
     4  C   -0.019702   0.006092  -0.000112  -0.000080  -0.000067   0.000079
     5  C    0.000743   0.000540  -0.000002  -0.000024  -0.000025   0.002763
     6  C    0.000550   0.000007  -0.000000  -0.000000  -0.000000  -0.049212
     7  C    4.395257   0.366885  -0.020626  -0.027737  -0.027957  -0.000000
     8  C    0.366885   5.310391   0.367430   0.356062   0.355863   0.000000
     9  H   -0.020626   0.367430   0.442295  -0.016500  -0.016647  -0.000000
    10  H   -0.027737   0.356062  -0.016500   0.506009  -0.024364   0.000000
    11  H   -0.027957   0.355863  -0.016647  -0.024364   0.507271   0.000000
    12  O   -0.000000   0.000000  -0.000000   0.000000   0.000000   8.089921
    13  H   -0.000000  -0.000000   0.000000   0.000000   0.000000   0.243951
    14  O    0.583817  -0.075611   0.002593   0.001279   0.001338   0.000000
    15  N    0.150324  -0.125545   0.004284   0.002448   0.002529   0.000000
    16  H   -0.017522   0.002587  -0.000141   0.001321   0.001388  -0.000000
    17  H    0.000001  -0.000000   0.000000   0.000000   0.000000  -0.004583
    18  H    0.000150  -0.000013   0.000000  -0.000004  -0.000005  -0.000047
    19  H    0.001895   0.000462   0.000001  -0.000014  -0.000014  -0.000040
    20  H    0.000002  -0.000000   0.000000   0.000000   0.000000  -0.001861
              13         14         15         16         17         18
     1  C   -0.025239  -0.000007   0.000038  -0.000015  -0.038695   0.002865
     2  C   -0.002254   0.000000   0.005064   0.000129   0.355352  -0.021283
     3  C    0.000572   0.000219  -0.050394  -0.002105  -0.022987   0.353905
     4  C   -0.000014  -0.004792   0.271543  -0.026928   0.003038  -0.041981
     5  C   -0.000185  -0.005541  -0.060159   0.003831   0.000345   0.004677
     6  C    0.005736   0.000858   0.004310  -0.000038   0.004201   0.000336
     7  C   -0.000000   0.583817   0.150324  -0.017522   0.000001   0.000150
     8  C   -0.000000  -0.075611  -0.125545   0.002587  -0.000000  -0.000013
     9  H    0.000000   0.002593   0.004284  -0.000141   0.000000   0.000000
    10  H    0.000000   0.001279   0.002448   0.001321   0.000000  -0.000004
    11  H    0.000000   0.001338   0.002529   0.001388   0.000000  -0.000005
    12  O    0.243951   0.000000   0.000000  -0.000000  -0.004583  -0.000047
    13  H    0.317757  -0.000000  -0.000000   0.000000   0.005461  -0.000012
    14  O   -0.000000   7.954378  -0.073748   0.002371  -0.000000   0.000003
    15  N   -0.000000  -0.073748   7.247984   0.299023  -0.000080  -0.007016
    16  H    0.000000   0.002371   0.299023   0.345491  -0.000010   0.005947
    17  H    0.005461  -0.000000  -0.000080  -0.000010   0.495340  -0.004681
    18  H   -0.000012   0.000003  -0.007016   0.005947  -0.004681   0.501621
    19  H    0.000003   0.023844  -0.010854  -0.000131   0.000007  -0.000095
    20  H   -0.000172   0.000001  -0.000070   0.000002  -0.000117   0.000010
              19         20
     1  C    0.003618  -0.031985
     2  C    0.000051   0.005439
     3  C    0.004663   0.000118
     4  C   -0.028738   0.003082
     5  C    0.343107  -0.029129
     6  C   -0.027615   0.357600
     7  C    0.001895   0.000002
     8  C    0.000462  -0.000000
     9  H    0.000001   0.000000
    10  H   -0.000014   0.000000
    11  H   -0.000014   0.000000
    12  O   -0.000040  -0.001861
    13  H    0.000003  -0.000172
    14  O    0.023844   0.000001
    15  N   -0.010854  -0.000070
    16  H   -0.000131   0.000002
    17  H    0.000007  -0.000117
    18  H   -0.000095   0.000010
    19  H    0.442650  -0.004551
    20  H   -0.004551   0.469986
          Atomic-Atomic Spin Densities.
               1          2          3          4          5          6
     1  C    0.219085   0.032629  -0.006263  -0.005315  -0.005170   0.033205
     2  C    0.032629   0.022310  -0.026212  -0.005989  -0.000938   0.001168
     3  C   -0.006263  -0.026212   0.080074   0.038024   0.000839  -0.001899
     4  C   -0.005315  -0.005989   0.038024   0.218290   0.034178  -0.004998
     5  C   -0.005170  -0.000938   0.000839   0.034178   0.032493  -0.024928
     6  C    0.033205   0.001168  -0.001899  -0.004998  -0.024928   0.042500
     7  C    0.000001   0.000000  -0.000173  -0.000139   0.000104   0.000003
     8  C   -0.000000   0.000000   0.000007   0.000156  -0.000014  -0.000000
     9  H   -0.000000  -0.000000  -0.000000  -0.000001   0.000000   0.000000
    10  H   -0.000000  -0.000000   0.000000  -0.000001   0.000001   0.000000
    11  H   -0.000000  -0.000000   0.000000  -0.000002   0.000001   0.000000
    12  O   -0.053343  -0.003323   0.000215   0.000062   0.000213  -0.004036
    13  H    0.000477   0.000210  -0.000003   0.000001  -0.000003  -0.000081
    14  O   -0.000001  -0.000000   0.000013   0.001366   0.000532  -0.000026
    15  N    0.000114   0.000381  -0.007754  -0.071605  -0.004339   0.000364
    16  H    0.000001  -0.000002   0.000360   0.000278  -0.000114  -0.000003
    17  H   -0.000593   0.000816   0.000159   0.000044  -0.000039   0.000024
    18  H    0.000040   0.000212   0.000702  -0.000511   0.000010  -0.000044
    19  H    0.000029  -0.000033   0.000011  -0.000496   0.000784   0.000122
    20  H   -0.000584  -0.000006  -0.000037   0.000034   0.000200   0.000788
               7          8          9         10         11         12
     1  C    0.000001  -0.000000  -0.000000  -0.000000  -0.000000  -0.053343
     2  C    0.000000   0.000000  -0.000000  -0.000000  -0.000000  -0.003323
     3  C   -0.000173   0.000007  -0.000000   0.000000   0.000000   0.000215
     4  C   -0.000139   0.000156  -0.000001  -0.000001  -0.000002   0.000062
     5  C    0.000104  -0.000014   0.000000   0.000001   0.000001   0.000213
     6  C    0.000003  -0.000000   0.000000   0.000000   0.000000  -0.004036
     7  C   -0.045357   0.001890   0.000058   0.000584   0.000574  -0.000000
     8  C    0.001890   0.002434   0.000167  -0.000025  -0.000021   0.000000
     9  H    0.000058   0.000167  -0.000627   0.000008   0.000009  -0.000000
    10  H    0.000584  -0.000025   0.000008  -0.001685   0.000441   0.000000
    11  H    0.000574  -0.000021   0.000009   0.000441  -0.001693  -0.000000
    12  O   -0.000000   0.000000  -0.000000   0.000000  -0.000000   0.216448
    13  H   -0.000000  -0.000000  -0.000000  -0.000000  -0.000000  -0.001540
    14  O   -0.007565   0.000745  -0.000126   0.000025   0.000022   0.000000
    15  N    0.005447  -0.001831  -0.000033  -0.000163  -0.000150  -0.000000
    16  H    0.000638   0.000111  -0.000006   0.000013   0.000014  -0.000000
    17  H   -0.000000   0.000000  -0.000000  -0.000000  -0.000000   0.000036
    18  H    0.000002  -0.000001   0.000000   0.000000   0.000000   0.000000
    19  H   -0.000032  -0.000005   0.000000   0.000000   0.000000   0.000000
    20  H    0.000000  -0.000000   0.000000   0.000000   0.000000  -0.000043
              13         14         15         16         17         18
     1  C    0.000477  -0.000001   0.000114   0.000001  -0.000593   0.000040
     2  C    0.000210  -0.000000   0.000381  -0.000002   0.000816   0.000212
     3  C   -0.000003   0.000013  -0.007754   0.000360   0.000159   0.000702
     4  C    0.000001   0.001366  -0.071605   0.000278   0.000044  -0.000511
     5  C   -0.000003   0.000532  -0.004339  -0.000114  -0.000039   0.000010
     6  C   -0.000081  -0.000026   0.000364  -0.000003   0.000024  -0.000044
     7  C   -0.000000  -0.007565   0.005447   0.000638  -0.000000   0.000002
     8  C   -0.000000   0.000745  -0.001831   0.000111   0.000000  -0.000001
     9  H   -0.000000  -0.000126  -0.000033  -0.000006  -0.000000   0.000000
    10  H   -0.000000   0.000025  -0.000163   0.000013  -0.000000   0.000000
    11  H   -0.000000   0.000022  -0.000150   0.000014  -0.000000   0.000000
    12  O   -0.001540   0.000000  -0.000000  -0.000000   0.000036   0.000000
    13  H   -0.004188   0.000000  -0.000000   0.000000  -0.000070   0.000000
    14  O    0.000000   0.108693  -0.003757  -0.000014   0.000000   0.000000
    15  N   -0.000000  -0.003757   0.307178  -0.002692  -0.000000   0.000088
    16  H    0.000000  -0.000014  -0.002692  -0.007531   0.000000  -0.000087
    17  H   -0.000070   0.000000  -0.000000   0.000000  -0.002510   0.000094
    18  H    0.000000   0.000000   0.000088  -0.000087   0.000094  -0.004840
    19  H   -0.000000  -0.000330   0.000053   0.000003  -0.000000   0.000002
    20  H    0.000003  -0.000000   0.000000  -0.000000   0.000002  -0.000000
              19         20
     1  C    0.000029  -0.000584
     2  C   -0.000033  -0.000006
     3  C    0.000011  -0.000037
     4  C   -0.000496   0.000034
     5  C    0.000784   0.000200
     6  C    0.000122   0.000788
     7  C   -0.000032   0.000000
     8  C   -0.000005  -0.000000
     9  H    0.000000   0.000000
    10  H    0.000000   0.000000
    11  H    0.000000   0.000000
    12  O    0.000000  -0.000043
    13  H   -0.000000   0.000003
    14  O   -0.000330  -0.000000
    15  N    0.000053   0.000000
    16  H    0.000003  -0.000000
    17  H   -0.000000   0.000002
    18  H    0.000002  -0.000000
    19  H   -0.002829   0.000079
    20  H    0.000079  -0.003201
 Mulliken charges and spin densities:
               1          2
     1  C    0.401026   0.214312
     2  C   -0.165225   0.021223
     3  C   -0.171760   0.078064
     4  C    0.403485   0.203376
     5  C   -0.136200   0.033809
     6  C   -0.136719   0.042159
     7  C    0.609895  -0.043965
     8  C   -0.564729   0.003614
     9  H    0.237422  -0.000551
    10  H    0.201601  -0.000802
    11  H    0.200688  -0.000805
    12  O   -0.544423   0.154689
    13  H    0.454396  -0.005195
    14  O   -0.411002   0.099577
    15  N   -0.659681   0.221301
    16  H    0.384799  -0.009030
    17  H    0.207410  -0.002037
    18  H    0.205623  -0.004332
    19  H    0.251750  -0.002642
    20  H    0.231644  -0.002767
 Sum of Mulliken charges =   1.00000   1.00000
 Mulliken charges and spin densities with hydrogens summed into heavy atoms:
               1          2
     1  C    0.401026   0.214312
     2  C    0.042185   0.019186
     3  C    0.033863   0.073732
     4  C    0.403485   0.203376
     5  C    0.115551   0.031167
     6  C    0.094925   0.039392
     7  C    0.609895  -0.043965
     8  C    0.074982   0.001457
    12  O   -0.090027   0.149495
    14  O   -0.411002   0.099577
    15  N   -0.274882   0.212271
 Electronic spatial extent (au):  <R**2>=           2200.9568
 Charge=              1.0000 electrons
 Dipole moment (field-independent basis, Debye):
    X=              2.7820    Y=              5.1279    Z=              0.0039  Tot=              5.8340
 Quadrupole moment (field-independent basis, Debye-Ang):
   XX=            -20.3946   YY=            -50.2195   ZZ=            -62.4408
   XY=             -2.3834   XZ=             -0.0304   YZ=             -0.0117
 Traceless Quadrupole moment (field-independent basis, Debye-Ang):
   XX=             23.9570   YY=             -5.8678   ZZ=            -18.0892
   XY=             -2.3834   XZ=             -0.0304   YZ=             -0.0117
 Octapole moment (field-independent basis, Debye-Ang**2):
  XXX=             43.6129  YYY=              9.2885  ZZZ=              0.0130  XYY=             15.8030
  XXY=             51.3826  XXZ=             -0.0285  XZZ=             -3.6960  YZZ=             -1.3000
  YYZ=              0.0022  XYZ=             -0.0263
 Hexadecapole moment (field-independent basis, Debye-Ang**3):
 XXXX=          -1546.7697 YYYY=           -352.5385 ZZZZ=            -63.9010 XXXY=             90.7608
 XXXZ=             -0.3691 YYYX=            -18.3973 YYYZ=             -0.0749 ZZZX=             -0.0989
 ZZZY=              0.0384 XXYY=           -413.3203 XXZZ=           -384.0042 YYZZ=            -82.8447
 XXYZ=              0.0008 YYXZ=              0.0087 ZZXY=             -1.9295
 N-N= 5.711160069909D+02 E-N=-2.327833973181D+03  KE= 5.104263795863D+02
                          Isotropic Fermi Contact Couplings
        Atom                 a.u.       MegaHertz       Gauss      10(-4) cm-1
     1  C(13)              0.01609      18.09257       6.45588       6.03503
     2  C(13)             -0.00265      -2.97907      -1.06301      -0.99371
     3  C(13)              0.00435       4.89244       1.74575       1.63194
     4  C(13)              0.01320      14.83449       5.29332       4.94825
     5  C(13)             -0.00028      -0.31830      -0.11358      -0.10617
     6  C(13)             -0.00003      -0.03713      -0.01325      -0.01239
     7  C(13)             -0.00931     -10.46298      -3.73345      -3.49007
     8  C(13)             -0.00026      -0.29400      -0.10491      -0.09807
     9  H(1)              -0.00018      -0.82447      -0.29419      -0.27502
    10  H(1)              -0.00009      -0.38436      -0.13715      -0.12821
    11  H(1)              -0.00009      -0.38534      -0.13750      -0.12854
    12  O(17)              0.03126     -18.95109      -6.76222      -6.32140
    13  H(1)              -0.00267     -11.92334      -4.25454      -3.97720
    14  O(17)              0.01155      -7.00317      -2.49890      -2.33600
    15  N(14)              0.03801      12.28119       4.38223       4.09656
    16  H(1)              -0.00410     -18.30583      -6.53198      -6.10617
    17  H(1)              -0.00083      -3.69430      -1.31822      -1.23229
    18  H(1)              -0.00166      -7.41561      -2.64607      -2.47358
    19  H(1)              -0.00103      -4.62192      -1.64921      -1.54171
    20  H(1)              -0.00110      -4.90812      -1.75134      -1.63717
 --------------------------------------------------------
       Center         ----  Spin Dipole Couplings  ----
                      3XX-RR        3YY-RR        3ZZ-RR
 --------------------------------------------------------
     1   Atom       -0.127668     -0.135504      0.263172
     2   Atom       -0.024352     -0.019867      0.044219
     3   Atom       -0.052767     -0.050655      0.103422
     4   Atom       -0.115742     -0.123752      0.239494
     5   Atom       -0.029904     -0.025077      0.054981
     6   Atom       -0.032708     -0.030421      0.063129
     7   Atom        0.018340      0.029378     -0.047718
     8   Atom        0.003465     -0.003345     -0.000120
     9   Atom        0.002774     -0.001042     -0.001732
    10   Atom        0.003519     -0.001666     -0.001853
    11   Atom        0.003538     -0.001662     -0.001876
    12   Atom       -0.347555     -0.352725      0.700279
    13   Atom       -0.003142      0.015661     -0.012519
    14   Atom       -0.181752     -0.178643      0.360395
    15   Atom       -0.270384     -0.274300      0.544684
    16   Atom       -0.019432      0.029247     -0.009816
    17   Atom       -0.002757      0.007852     -0.005095
    18   Atom       -0.007102      0.012572     -0.005470
    19   Atom       -0.001835      0.007595     -0.005760
    20   Atom       -0.005216      0.010348     -0.005132
 --------------------------------------------------------
                        XY            XZ            YZ
 --------------------------------------------------------
     1   Atom       -0.001715      0.000159      0.000255
     2   Atom       -0.002159      0.000073      0.000032
     3   Atom        0.003384      0.000134      0.000147
     4   Atom       -0.000746     -0.000012      0.000121
     5   Atom       -0.001720      0.000001      0.000158
     6   Atom        0.003101     -0.000018      0.000073
     7   Atom        0.010406     -0.000015      0.000058
     8   Atom        0.000078      0.000000     -0.000031
     9   Atom       -0.000012      0.000009     -0.000000
    10   Atom       -0.001316     -0.001656      0.000723
    11   Atom       -0.001350      0.001642     -0.000722
    12   Atom        0.005585      0.000630      0.001193
    13   Atom        0.025172     -0.000036     -0.000048
    14   Atom        0.001871      0.000315     -0.000913
    15   Atom       -0.001522     -0.000294     -0.000507
    16   Atom       -0.013405     -0.000015      0.000009
    17   Atom        0.004321     -0.000003     -0.000012
    18   Atom       -0.000994      0.000002     -0.000005
    19   Atom        0.003898     -0.000005     -0.000015
    20   Atom       -0.000349      0.000001     -0.000017
 --------------------------------------------------------


 ---------------------------------------------------------------------------------
              Anisotropic Spin Dipole Couplings in Principal Axis System
 ---------------------------------------------------------------------------------

       Atom             a.u.   MegaHertz   Gauss  10(-4) cm-1        Axes

              Baa    -0.1359   -18.232    -6.505    -6.081  0.2049  0.9788 -0.0007
     1 C(13)  Bbb    -0.1273   -17.084    -6.096    -5.698  0.9788 -0.2049 -0.0003
              Bcc     0.2632    35.315    12.601    11.780  0.0004  0.0006  1.0000
 
              Baa    -0.0252    -3.385    -1.208    -1.129  0.9274  0.3739 -0.0012
     2 C(13)  Bbb    -0.0190    -2.549    -0.910    -0.850 -0.3739  0.9274 -0.0000
              Bcc     0.0442     5.934     2.117     1.979  0.0011  0.0005  1.0000
 
              Baa    -0.0553    -7.415    -2.646    -2.473  0.8056 -0.5925 -0.0001
     3 C(13)  Bbb    -0.0482    -6.463    -2.306    -2.156  0.5925  0.8056 -0.0013
              Bcc     0.1034    13.878     4.952     4.629  0.0009  0.0010  1.0000
 
              Baa    -0.1238   -16.616    -5.929    -5.542  0.0920  0.9958 -0.0003
     4 C(13)  Bbb    -0.1157   -15.522    -5.539    -5.178  0.9958 -0.0920  0.0001
              Bcc     0.2395    32.138    11.468    10.720 -0.0000  0.0003  1.0000
 
              Baa    -0.0305    -4.087    -1.458    -1.363  0.9524  0.3047 -0.0006
     5 C(13)  Bbb    -0.0245    -3.291    -1.174    -1.098 -0.3047  0.9524 -0.0019
              Bcc     0.0550     7.378     2.633     2.461 -0.0000  0.0020  1.0000
 
              Baa    -0.0349    -4.679    -1.670    -1.561  0.8204 -0.5719  0.0006
     6 C(13)  Bbb    -0.0283    -3.792    -1.353    -1.265  0.5719  0.8204 -0.0005
              Bcc     0.0631     8.471     3.023     2.826 -0.0002  0.0008  1.0000
 
              Baa    -0.0477    -6.403    -2.285    -2.136  0.0003 -0.0008  1.0000
     7 C(13)  Bbb     0.0121     1.621     0.578     0.541  0.8569 -0.5155 -0.0007
              Bcc     0.0356     4.782     1.706     1.595  0.5155  0.8569  0.0005
 
              Baa    -0.0033    -0.449    -0.160    -0.150 -0.0115  0.9999  0.0096
     8 C(13)  Bbb    -0.0001    -0.016    -0.006    -0.005  0.0001 -0.0096  1.0000
              Bcc     0.0035     0.465     0.166     0.155  0.9999  0.0115 -0.0000
 
              Baa    -0.0017    -0.924    -0.330    -0.308 -0.0020  0.0001  1.0000
     9 H(1)   Bbb    -0.0010    -0.556    -0.198    -0.185  0.0032  1.0000 -0.0001
              Bcc     0.0028     1.480     0.528     0.494  1.0000 -0.0032  0.0020
 
              Baa    -0.0025    -1.352    -0.482    -0.451  0.1160 -0.5263  0.8424
    10 H(1)   Bbb    -0.0018    -0.967    -0.345    -0.323  0.3453  0.8166  0.4626
              Bcc     0.0043     2.319     0.827     0.774  0.9313 -0.2372 -0.2764
 
              Baa    -0.0025    -1.355    -0.484    -0.452 -0.1122  0.5224  0.8453
    11 H(1)   Bbb    -0.0018    -0.975    -0.348    -0.325  0.3463  0.8179 -0.4595
              Bcc     0.0044     2.331     0.832     0.777  0.9314 -0.2412  0.2727
 
              Baa    -0.3563    25.781     9.199     8.600 -0.5384  0.8427 -0.0006
    12 O(17)  Bbb    -0.3440    24.891     8.882     8.303  0.8427  0.5384 -0.0011
              Bcc     0.7003   -50.672   -18.081   -16.902  0.0006  0.0011  1.0000
 
              Baa    -0.0206   -10.997    -3.924    -3.668  0.8216 -0.5701  0.0003
    13 H(1)   Bbb    -0.0125    -6.680    -2.383    -2.228  0.0005  0.0013  1.0000
              Bcc     0.0331    17.677     6.307     5.896  0.5701  0.8216 -0.0013
 
              Baa    -0.1826    13.215     4.715     4.408  0.9052 -0.4250 -0.0012
    14 O(17)  Bbb    -0.1778    12.863     4.590     4.291  0.4250  0.9052  0.0013
              Bcc     0.3604   -26.078    -9.305    -8.699  0.0006 -0.0017  1.0000
 
              Baa    -0.2748   -10.599    -3.782    -3.536  0.3244  0.9459  0.0007
    15 N(14)  Bbb    -0.2699   -10.408    -3.714    -3.472  0.9459 -0.3244  0.0001
              Bcc     0.5447    21.007     7.496     7.007 -0.0004 -0.0006  1.0000
 
              Baa    -0.0229   -12.207    -4.356    -4.072  0.9685  0.2491  0.0009
    16 H(1)   Bbb    -0.0098    -5.237    -1.869    -1.747 -0.0008 -0.0005  1.0000
              Bcc     0.0327    17.444     6.225     5.819 -0.2491  0.9685  0.0003
 
              Baa    -0.0051    -2.718    -0.970    -0.907 -0.0014  0.0014  1.0000
    17 H(1)   Bbb    -0.0043    -2.291    -0.818    -0.764  0.9422 -0.3352  0.0018
              Bcc     0.0094     5.010     1.788     1.671  0.3352  0.9422 -0.0008
 
              Baa    -0.0072    -3.816    -1.362    -1.273  0.9987  0.0503 -0.0011
    18 H(1)   Bbb    -0.0055    -2.919    -1.041    -0.974  0.0011  0.0003  1.0000
              Bcc     0.0126     6.735     2.403     2.246 -0.0503  0.9987 -0.0003
 
              Baa    -0.0058    -3.073    -1.097    -1.025  0.0002  0.0011  1.0000
    19 H(1)   Bbb    -0.0032    -1.727    -0.616    -0.576  0.9409 -0.3386  0.0002
              Bcc     0.0090     4.800     1.713     1.601  0.3386  0.9409 -0.0010
 
              Baa    -0.0052    -2.787    -0.994    -0.930  0.9997  0.0224 -0.0108
    20 H(1)   Bbb    -0.0051    -2.738    -0.977    -0.913  0.0108  0.0013  0.9999
              Bcc     0.0104     5.525     1.972     1.843 -0.0224  0.9997 -0.0011
 

 ---------------------------------------------------------------------------------

 1\1\GINC-RUNNINGMAN\SP\UB3LYP\6-31G(d)\C8H9N1O2(1+,2)\RPATON\08-Aug-20
 21\0\\# ub3lyp/6-31G*\\title\\1,2\C,0,-1.2008,0.52014,0.02618\C,0,-0.6
 5849,1.79875,0.00662\C,0,0.73147,1.95418,0.00966\C,0,1.58002,0.83735,0
 .03236\C,0,1.01361,-0.43872,0.05166\C,0,-0.37629,-0.59645,0.0485\C,0,3
 .99063,0.15254,0.05602\C,0,5.34795,0.81013,0.0486\H,0,6.12973,0.04588,
 0.07389\H,0,5.46548,1.40767,-0.85985\H,0,5.45354,1.45398,0.92638\O,0,-
 2.54818,0.31752,0.02422\H,0,-2.99416,1.17969,0.00857\O,0,3.88225,-1.06
 748,0.07858\N,0,2.96821,1.08475,0.03403\H,0,3.24493,2.05794,0.01754\H,
 0,-1.29266,2.67914,-0.01097\H,0,1.13939,2.96139,-0.00578\H,0,1.6235,-1
 .33635,0.06931\H,0,-0.80859,-1.59316,0.06357\\Version=EM64M-G16RevB.01
 \State=2-A\HF=-515.2045522\S2=0.75738\S2-1=0.\S2A=0.750032\RMSD=5.973e
 -09\Dipole=-0.9880101,2.0712974,-0.0424373\Quadrupole=17.9351926,-4.48
 90923,-13.4461004,0.6116679,0.1033879,-0.1458873\PG=C01 [X(C8H9N1O2)]\
 \@


 A SOLDIER'S LIFE IS A LIFE OF HONOR, BUT A DOG WOULD NOT LEAD IT.
 -- PRINCE RUPERT, FOUNDER OF THE HUDSON'S BAY COMPANY
 Job cpu time:       0 days  0 hours  3 minutes 26.6 seconds.
 Elapsed time:       0 days  0 hours  0 minutes 51.8 seconds.
 File lengths (MBytes):  RWF=     37 Int=      0 D2E=      0 Chk=      3 Scr=      1
 Normal termination of Gaussian 16 at Sun Aug  8 21:32:33 2021.
